<?xml version="1.0" encoding="UTF-8"?>

<!-- generated on 2026-01-29T21:30:01.878076+01:00 by Eclipse SUMO GUI 1.25.0
<sumoConfiguration xmlns:xsi="http://www.w3.org/2001/XMLSchema-instance" xsi:noNamespaceSchemaLocation="http://sumo.dlr.de/xsd/sumoConfiguration.xsd">

    <input>
        <net-file value="c:\Users\alera\Desktop\ENTPE\MoCoM\MOCOM_project_2\Network with actuated control\ff.net.xml"/>
        <route-files value="c:\Users\alera\Desktop\ENTPE\MoCoM\MOCOM_project_2\Network with actuated control\ff_heterogeneous.rou.xml"/>
    </input>

    <output>
        <emission-output value="c:\Users\alera\Desktop\ENTPE\MoCoM\MOCOM_project_2\Network with actuated control\results\emissions.xml"/>
        <tripinfo-output value="c:\Users\alera\Desktop\ENTPE\MoCoM\MOCOM_project_2\Network with actuated control\results\tripinfo.xml"/>
        <edgedata-output value="c:\Users\alera\Desktop\ENTPE\MoCoM\MOCOM_project_2\Network with actuated control\results\edge_data.xml"/>
    </output>

    <time>
        <begin value="0"/>
        <end value="3600"/>
    </time>

    <report>
        <log value="c:\Users\alera\Desktop\ENTPE\MoCoM\MOCOM_project_2\Network with actuated control\results\sumo_log.txt"/>
        <error-log value="c:\Users\alera\Desktop\ENTPE\MoCoM\MOCOM_project_2\Network with actuated control\results\sumo_err.txt"/>
    </report>

    <traci_server>
        <remote-port value="52581"/>
    </traci_server>

    <gui_only>
        <quit-on-end value="true"/>
        <start value="true"/>
    </gui_only>

</sumoConfiguration>
-->

<tripinfos xmlns:xsi="http://www.w3.org/2001/XMLSchema-instance" xsi:noNamespaceSchemaLocation="http://sumo.dlr.de/xsd/tripinfo_file.xsd">
    <tripinfo id="f_4.0" depart="0.00" departLane="C5C4_0" departPos="12.10" departSpeed="0.00" departDelay="0.00" arrival="127.00" arrivalLane="C1C0_0" arrivalPos="186.40" arrivalSpeed="13.83" duration="127.00" routeLength="987.90" waitingTime="37.00" waitingCount="1" stopTime="0.00" timeLoss="55.69" rerouteNo="0" devices="tripinfo_f_4.0 emissions_f_4.0" vType="t_0" speedFactor="1.00" vaporized="">
        <emissions CO_abs="313.32" CO2_abs="1339792.40" HC_abs="26.19" PMx_abs="197.46" NOx_abs="624.65" fuel_abs="430564.12" electricity_abs="0.00"/>
    </tripinfo>
    <tripinfo id="f_5.0" depart="0.00" departLane="C0C1_0" departPos="12.10" departSpeed="0.00" departDelay="0.00" arrival="127.00" arrivalLane="C4C5_0" arrivalPos="186.40" arrivalSpeed="13.30" duration="127.00" routeLength="987.90" waitingTime="38.00" waitingCount="1" stopTime="0.00" timeLoss="55.25" rerouteNo="0" devices="tripinfo_f_5.0 emissions_f_5.0" vType="t_0" speedFactor="1.00" vaporized="">
        <emissions CO_abs="309.30" CO2_abs="1316946.84" HC_abs="25.77" PMx_abs="194.17" NOx_abs="614.12" fuel_abs="423222.34" electricity_abs="0.00"/>
    </tripinfo>
    <tripinfo id="f_4.1" depart="60.00" departLane="C5C4_0" departPos="12.10" departSpeed="0.00" departDelay="0.00" arrival="202.00" arrivalLane="C1C0_0" arrivalPos="186.40" arrivalSpeed="13.34" duration="142.00" routeLength="987.90" waitingTime="44.00" waitingCount="2" stopTime="0.00" timeLoss="70.30" rerouteNo="0" devices="tripinfo_f_4.1 emissions_f_4.1" vType="t_0" speedFactor="1.00" vaporized="">
        <emissions CO_abs="363.41" CO2_abs="1551294.97" HC_abs="29.25" PMx_abs="216.46" NOx_abs="687.47" fuel_abs="498536.41" electricity_abs="0.00"/>
    </tripinfo>
    <tripinfo id="f_5.1" depart="60.00" departLane="C0C1_0" departPos="12.10" departSpeed="0.00" departDelay="0.00" arrival="202.00" arrivalLane="C4C5_0" arrivalPos="186.40" arrivalSpeed="13.35" duration="142.00" routeLength="987.90" waitingTime="46.00" waitingCount="2" stopTime="0.00" timeLoss="70.83" rerouteNo="0" devices="tripinfo_f_5.1 emissions_f_5.1" vType="t_0" speedFactor="1.00" vaporized="">
        <emissions CO_abs="363.77" CO2_abs="1550772.51" HC_abs="29.25" PMx_abs="216.57" NOx_abs="688.04" fuel_abs="498368.58" electricity_abs="0.00"/>
    </tripinfo>
    <tripinfo id="f_1.1" depart="4.00" departLane="D0D1_0" departPos="1.70" departSpeed="0.00" departDelay="2.07" arrival="220.00" arrivalLane="D4D5_0" arrivalPos="187.40" arrivalSpeed="5.66" duration="216.00" routeLength="998.30" waitingTime="28.00" waitingCount="2" stopTime="0.00" timeLoss="49.53" rerouteNo="0" devices="tripinfo_f_1.1 emissions_f_1.1" vType="DEFAULT_BIKETYPE" speedFactor="1.08" vaporized="">
        <emissions CO_abs="0.00" CO2_abs="0.00" HC_abs="0.00" PMx_abs="0.00" NOx_abs="0.00" fuel_abs="0.00" electricity_abs="0.00"/>
    </tripinfo>
    <tripinfo id="f_0.0" depart="1.00" departLane="D5D4_0" departPos="1.70" departSpeed="0.00" departDelay="0.65" arrival="221.00" arrivalLane="D1D0_0" arrivalPos="187.40" arrivalSpeed="5.35" duration="220.00" routeLength="998.30" waitingTime="26.00" waitingCount="2" stopTime="0.00" timeLoss="49.62" rerouteNo="0" devices="tripinfo_f_0.0 emissions_f_0.0" vType="DEFAULT_BIKETYPE" speedFactor="1.06" vaporized="">
        <emissions CO_abs="0.00" CO2_abs="0.00" HC_abs="0.00" PMx_abs="0.00" NOx_abs="0.00" fuel_abs="0.00" electricity_abs="0.00"/>
    </tripinfo>
    <tripinfo id="f_3.0" depart="3.00" departLane="B5B4_0" departPos="1.70" departSpeed="0.00" departDelay="0.85" arrival="221.00" arrivalLane="B1B0_0" arrivalPos="187.40" arrivalSpeed="5.47" duration="218.00" routeLength="998.30" waitingTime="22.00" waitingCount="2" stopTime="0.00" timeLoss="43.47" rerouteNo="0" devices="tripinfo_f_3.0 emissions_f_3.0" vType="DEFAULT_BIKETYPE" speedFactor="1.03" vaporized="">
        <emissions CO_abs="0.00" CO2_abs="0.00" HC_abs="0.00" PMx_abs="0.00" NOx_abs="0.00" fuel_abs="0.00" electricity_abs="0.00"/>
    </tripinfo>
    <tripinfo id="f_1.0" depart="2.00" departLane="D0D1_0" departPos="1.70" departSpeed="0.00" departDelay="0.97" arrival="222.00" arrivalLane="D4D5_0" arrivalPos="187.40" arrivalSpeed="5.34" duration="220.00" routeLength="998.30" waitingTime="21.00" waitingCount="2" stopTime="0.00" timeLoss="41.87" rerouteNo="0" devices="tripinfo_f_1.0 emissions_f_1.0" vType="DEFAULT_BIKETYPE" speedFactor="1.01" vaporized="">
        <emissions CO_abs="0.00" CO2_abs="0.00" HC_abs="0.00" PMx_abs="0.00" NOx_abs="0.00" fuel_abs="0.00" electricity_abs="0.00"/>
    </tripinfo>
    <tripinfo id="f7091.0" depart="191.00" departLane="D2C2_0" departPos="40.90" departSpeed="13.72" departDelay="0.00" arrival="243.00" arrivalLane="C2B2_0" arrivalPos="172.80" arrivalSpeed="13.60" duration="52.00" routeLength="331.90" waitingTime="22.00" waitingCount="1" stopTime="0.00" timeLoss="27.58" rerouteNo="0" devices="tripinfo_f7091.0 routing_f7091.0 emissions_f7091.0" vType="car" speedFactor="0.99" vaporized="">
        <emissions CO_abs="376.91" CO2_abs="104750.56" HC_abs="2.52" PMx_abs="6.74" NOx_abs="37.66" fuel_abs="33958.89" electricity_abs="0.00"/>
    </tripinfo>
    <tripinfo id="f4176.0" depart="196.00" departLane="C5C4_1" departPos="16.59" departSpeed="13.29" departDelay="0.00" arrival="246.00" arrivalLane="B4B5_3" arrivalPos="187.40" arrivalSpeed="12.90" duration="50.00" routeLength="547.28" waitingTime="0.00" waitingCount="0" stopTime="0.00" timeLoss="5.94" rerouteNo="1" devices="tripinfo_f4176.0 routing_f4176.0 emissions_f4176.0" vType="car" speedFactor="0.96" vaporized="">
        <emissions CO_abs="659.22" CO2_abs="124550.38" HC_abs="4.40" PMx_abs="13.13" NOx_abs="42.90" fuel_abs="40377.64" electricity_abs="0.00"/>
    </tripinfo>
    <tripinfo id="f5254.0" depart="214.00" departLane="C2B2_2" departPos="101.80" departSpeed="12.04" departDelay="0.00" arrival="248.00" arrivalLane="B2A2_0" arrivalPos="186.40" arrivalSpeed="11.47" duration="34.00" routeLength="284.60" waitingTime="0.00" waitingCount="0" stopTime="0.00" timeLoss="10.17" rerouteNo="0" devices="tripinfo_f5254.0 routing_f5254.0 emissions_f5254.0" vType="car" speedFactor="0.87" vaporized="">
        <emissions CO_abs="252.61" CO2_abs="72750.11" HC_abs="1.69" PMx_abs="6.28" NOx_abs="24.55" fuel_abs="23584.58" electricity_abs="0.00"/>
    </tripinfo>
    <tripinfo id="f_1.9" depart="28.00" departLane="D0D1_0" departPos="1.70" departSpeed="0.00" departDelay="1.96" arrival="249.00" arrivalLane="D4D5_0" arrivalPos="187.40" arrivalSpeed="6.53" duration="221.00" routeLength="998.30" waitingTime="45.00" waitingCount="3" stopTime="0.00" timeLoss="67.98" rerouteNo="0" devices="tripinfo_f_1.9 emissions_f_1.9" vType="DEFAULT_BIKETYPE" speedFactor="1.18" vaporized="">
        <emissions CO_abs="0.00" CO2_abs="0.00" HC_abs="0.00" PMx_abs="0.00" NOx_abs="0.00" fuel_abs="0.00" electricity_abs="0.00"/>
    </tripinfo>
    <tripinfo id="f_2.2" depart="20.00" departLane="B0B1_0" departPos="1.70" departSpeed="0.00" departDelay="0.40" arrival="250.00" arrivalLane="B4B5_0" arrivalPos="187.40" arrivalSpeed="6.31" duration="230.00" routeLength="998.30" waitingTime="50.00" waitingCount="2" stopTime="0.00" timeLoss="74.45" rerouteNo="0" devices="tripinfo_f_2.2 emissions_f_2.2" vType="DEFAULT_BIKETYPE" speedFactor="1.16" vaporized="">
        <emissions CO_abs="0.00" CO2_abs="0.00" HC_abs="0.00" PMx_abs="0.00" NOx_abs="0.00" fuel_abs="0.00" electricity_abs="0.00"/>
    </tripinfo>
    <tripinfo id="f_3.8" depart="33.00" departLane="B5B4_0" departPos="1.70" departSpeed="0.00" departDelay="5.07" arrival="250.00" arrivalLane="B1B0_0" arrivalPos="187.40" arrivalSpeed="6.50" duration="217.00" routeLength="998.30" waitingTime="42.00" waitingCount="2" stopTime="0.00" timeLoss="62.76" rerouteNo="0" devices="tripinfo_f_3.8 emissions_f_3.8" vType="DEFAULT_BIKETYPE" speedFactor="1.17" vaporized="">
        <emissions CO_abs="0.00" CO2_abs="0.00" HC_abs="0.00" PMx_abs="0.00" NOx_abs="0.00" fuel_abs="0.00" electricity_abs="0.00"/>
    </tripinfo>
    <tripinfo id="f_1.8" depart="26.00" departLane="D0D1_0" departPos="1.70" departSpeed="0.00" departDelay="0.77" arrival="251.00" arrivalLane="D4D5_1" arrivalPos="187.40" arrivalSpeed="5.88" duration="225.00" routeLength="998.30" waitingTime="46.00" waitingCount="2" stopTime="0.00" timeLoss="65.87" rerouteNo="0" devices="tripinfo_f_1.8 emissions_f_1.8" vType="DEFAULT_BIKETYPE" speedFactor="1.13" vaporized="">
        <emissions CO_abs="0.00" CO2_abs="0.00" HC_abs="0.00" PMx_abs="0.00" NOx_abs="0.00" fuel_abs="0.00" electricity_abs="0.00"/>
    </tripinfo>
    <tripinfo id="f_1.5" depart="14.00" departLane="D0D1_0" departPos="1.70" departSpeed="0.00" departDelay="1.92" arrival="252.00" arrivalLane="D4D5_0" arrivalPos="187.40" arrivalSpeed="6.04" duration="238.00" routeLength="998.30" waitingTime="58.00" waitingCount="2" stopTime="0.00" timeLoss="77.75" rerouteNo="0" devices="tripinfo_f_1.5 emissions_f_1.5" vType="DEFAULT_BIKETYPE" speedFactor="1.12" vaporized="">
        <emissions CO_abs="0.00" CO2_abs="0.00" HC_abs="0.00" PMx_abs="0.00" NOx_abs="0.00" fuel_abs="0.00" electricity_abs="0.00"/>
    </tripinfo>
    <tripinfo id="f_2.0" depart="10.00" departLane="B0B1_0" departPos="1.70" departSpeed="0.00" departDelay="0.64" arrival="254.00" arrivalLane="B4B5_0" arrivalPos="187.40" arrivalSpeed="5.75" duration="244.00" routeLength="998.30" waitingTime="58.00" waitingCount="2" stopTime="0.00" timeLoss="78.38" rerouteNo="0" devices="tripinfo_f_2.0 emissions_f_2.0" vType="DEFAULT_BIKETYPE" speedFactor="1.09" vaporized="">
        <emissions CO_abs="0.00" CO2_abs="0.00" HC_abs="0.00" PMx_abs="0.00" NOx_abs="0.00" fuel_abs="0.00" electricity_abs="0.00"/>
    </tripinfo>
    <tripinfo id="f_3.12" depart="45.00" departLane="B5B4_0" departPos="1.70" departSpeed="0.00" departDelay="0.55" arrival="254.00" arrivalLane="B1B0_0" arrivalPos="187.40" arrivalSpeed="5.82" duration="209.00" routeLength="998.30" waitingTime="19.00" waitingCount="2" stopTime="0.00" timeLoss="44.20" rerouteNo="0" devices="tripinfo_f_3.12 emissions_f_3.12" vType="DEFAULT_BIKETYPE" speedFactor="1.10" vaporized="">
        <emissions CO_abs="0.00" CO2_abs="0.00" HC_abs="0.00" PMx_abs="0.00" NOx_abs="0.00" fuel_abs="0.00" electricity_abs="0.00"/>
    </tripinfo>
    <tripinfo id="f_2.14" depart="58.00" departLane="B0B1_0" departPos="1.70" departSpeed="0.00" departDelay="5.62" arrival="254.00" arrivalLane="B4B5_1" arrivalPos="187.40" arrivalSpeed="6.05" duration="196.00" routeLength="998.30" waitingTime="13.00" waitingCount="1" stopTime="0.00" timeLoss="35.47" rerouteNo="0" devices="tripinfo_f_2.14 emissions_f_2.14" vType="DEFAULT_BIKETYPE" speedFactor="1.12" vaporized="">
        <emissions CO_abs="0.00" CO2_abs="0.00" HC_abs="0.00" PMx_abs="0.00" NOx_abs="0.00" fuel_abs="0.00" electricity_abs="0.00"/>
    </tripinfo>
    <tripinfo id="f_1.12" depart="39.00" departLane="D0D1_0" departPos="1.70" departSpeed="0.00" departDelay="2.07" arrival="255.00" arrivalLane="D4D5_0" arrivalPos="187.40" arrivalSpeed="5.73" duration="216.00" routeLength="998.30" waitingTime="29.00" waitingCount="2" stopTime="0.00" timeLoss="52.98" rerouteNo="0" devices="tripinfo_f_1.12 emissions_f_1.12" vType="DEFAULT_BIKETYPE" speedFactor="1.10" vaporized="">
        <emissions CO_abs="0.00" CO2_abs="0.00" HC_abs="0.00" PMx_abs="0.00" NOx_abs="0.00" fuel_abs="0.00" electricity_abs="0.00"/>
    </tripinfo>
    <tripinfo id="f_2.8" depart="42.00" departLane="B0B1_0" departPos="1.70" departSpeed="0.00" departDelay="0.39" arrival="255.00" arrivalLane="B4B5_0" arrivalPos="187.40" arrivalSpeed="5.95" duration="213.00" routeLength="998.30" waitingTime="25.00" waitingCount="2" stopTime="0.00" timeLoss="47.59" rerouteNo="0" devices="tripinfo_f_2.8 emissions_f_2.8" vType="DEFAULT_BIKETYPE" speedFactor="1.09" vaporized="">
        <emissions CO_abs="0.00" CO2_abs="0.00" HC_abs="0.00" PMx_abs="0.00" NOx_abs="0.00" fuel_abs="0.00" electricity_abs="0.00"/>
    </tripinfo>
    <tripinfo id="f_2.1" depart="12.00" departLane="B0B1_0" departPos="1.70" departSpeed="0.00" departDelay="0.91" arrival="257.00" arrivalLane="B4B5_0" arrivalPos="187.40" arrivalSpeed="5.72" duration="245.00" routeLength="998.30" waitingTime="50.00" waitingCount="2" stopTime="0.00" timeLoss="72.99" rerouteNo="0" devices="tripinfo_f_2.1 emissions_f_2.1" vType="DEFAULT_BIKETYPE" speedFactor="1.05" vaporized="">
        <emissions CO_abs="0.00" CO2_abs="0.00" HC_abs="0.00" PMx_abs="0.00" NOx_abs="0.00" fuel_abs="0.00" electricity_abs="0.00"/>
    </tripinfo>
    <tripinfo id="f_3.2" depart="7.00" departLane="B5B4_0" departPos="1.70" departSpeed="0.00" departDelay="2.12" arrival="259.00" arrivalLane="B1B0_0" arrivalPos="187.40" arrivalSpeed="5.24" duration="252.00" routeLength="998.30" waitingTime="59.00" waitingCount="2" stopTime="0.00" timeLoss="79.31" rerouteNo="0" devices="tripinfo_f_3.2 emissions_f_3.2" vType="DEFAULT_BIKETYPE" speedFactor="1.05" vaporized="">
        <emissions CO_abs="0.00" CO2_abs="0.00" HC_abs="0.00" PMx_abs="0.00" NOx_abs="0.00" fuel_abs="0.00" electricity_abs="0.00"/>
    </tripinfo>
    <tripinfo id="f_0.2" depart="12.00" departLane="D5D4_0" departPos="1.70" departSpeed="0.00" departDelay="0.56" arrival="259.00" arrivalLane="D1D0_0" arrivalPos="187.40" arrivalSpeed="5.29" duration="247.00" routeLength="998.30" waitingTime="49.00" waitingCount="2" stopTime="0.00" timeLoss="71.49" rerouteNo="0" devices="tripinfo_f_0.2 emissions_f_0.2" vType="DEFAULT_BIKETYPE" speedFactor="1.03" vaporized="">
        <emissions CO_abs="0.00" CO2_abs="0.00" HC_abs="0.00" PMx_abs="0.00" NOx_abs="0.00" fuel_abs="0.00" electricity_abs="0.00"/>
    </tripinfo>
    <tripinfo id="f_2.3" depart="22.00" departLane="B0B1_0" departPos="1.70" departSpeed="0.00" departDelay="1.02" arrival="259.00" arrivalLane="B4B5_0" arrivalPos="187.40" arrivalSpeed="5.26" duration="237.00" routeLength="998.30" waitingTime="39.00" waitingCount="2" stopTime="0.00" timeLoss="60.44" rerouteNo="0" devices="tripinfo_f_2.3 emissions_f_2.3" vType="DEFAULT_BIKETYPE" speedFactor="1.02" vaporized="">
        <emissions CO_abs="0.00" CO2_abs="0.00" HC_abs="0.00" PMx_abs="0.00" NOx_abs="0.00" fuel_abs="0.00" electricity_abs="0.00"/>
    </tripinfo>
    <tripinfo id="f4034.0" depart="202.00" departLane="E0E1_2" departPos="77.76" departSpeed="13.45" departDelay="0.00" arrival="261.00" arrivalLane="C1C0_2" arrivalPos="186.40" arrivalSpeed="13.31" duration="59.00" routeLength="716.86" waitingTime="0.00" waitingCount="0" stopTime="0.00" timeLoss="3.55" rerouteNo="1" devices="tripinfo_f4034.0 routing_f4034.0 emissions_f4034.0" vType="car" speedFactor="0.97" vaporized="">
        <emissions CO_abs="666.10" CO2_abs="130073.11" HC_abs="4.48" PMx_abs="16.82" NOx_abs="46.07" fuel_abs="42168.22" electricity_abs="0.00"/>
    </tripinfo>
    <tripinfo id="f5419.0" depart="241.00" departLane="C4D4_1" departPos="162.00" departSpeed="7.65" departDelay="0.00" arrival="261.00" arrivalLane="D4D5_3" arrivalPos="187.40" arrivalSpeed="13.69" duration="20.00" routeLength="221.91" waitingTime="0.00" waitingCount="0" stopTime="0.00" timeLoss="2.72" rerouteNo="0" devices="tripinfo_f5419.0 routing_f5419.0 emissions_f5419.0" vType="car" speedFactor="1.12" vaporized="">
        <emissions CO_abs="310.44" CO2_abs="52316.22" HC_abs="2.07" PMx_abs="5.26" NOx_abs="18.07" fuel_abs="16960.22" electricity_abs="0.00"/>
    </tripinfo>
    <tripinfo id="f5357.0" depart="186.00" departLane="C3C4_2" departPos="162.27" departSpeed="7.52" departDelay="0.00" arrival="262.00" arrivalLane="E4F4_1" arrivalPos="186.40" arrivalSpeed="12.60" duration="76.00" routeLength="605.96" waitingTime="17.00" waitingCount="1" stopTime="0.00" timeLoss="29.81" rerouteNo="1" devices="tripinfo_f5357.0 routing_f5357.0 emissions_f5357.0" vType="car" speedFactor="0.97" vaporized="">
        <emissions CO_abs="777.17" CO2_abs="183297.38" HC_abs="5.18" PMx_abs="15.37" NOx_abs="63.82" fuel_abs="59422.79" electricity_abs="0.00"/>
    </tripinfo>
    <tripinfo id="f_1.6" depart="17.00" departLane="D0D1_0" departPos="1.70" departSpeed="0.00" departDelay="4.52" arrival="263.00" arrivalLane="D4D5_0" arrivalPos="187.40" arrivalSpeed="5.42" duration="246.00" routeLength="998.30" waitingTime="43.00" waitingCount="2" stopTime="0.00" timeLoss="64.24" rerouteNo="0" devices="tripinfo_f_1.6 emissions_f_1.6" vType="DEFAULT_BIKETYPE" speedFactor="0.99" vaporized="">
        <emissions CO_abs="0.00" CO2_abs="0.00" HC_abs="0.00" PMx_abs="0.00" NOx_abs="0.00" fuel_abs="0.00" electricity_abs="0.00"/>
    </tripinfo>
    <tripinfo id="f_3.4" depart="23.00" departLane="B5B4_0" departPos="1.70" departSpeed="0.00" departDelay="2.05" arrival="263.00" arrivalLane="B1B0_0" arrivalPos="187.40" arrivalSpeed="5.14" duration="240.00" routeLength="998.30" waitingTime="34.00" waitingCount="2" stopTime="0.00" timeLoss="54.79" rerouteNo="0" devices="tripinfo_f_3.4 emissions_f_3.4" vType="DEFAULT_BIKETYPE" speedFactor="0.97" vaporized="">
        <emissions CO_abs="0.00" CO2_abs="0.00" HC_abs="0.00" PMx_abs="0.00" NOx_abs="0.00" fuel_abs="0.00" electricity_abs="0.00"/>
    </tripinfo>
    <tripinfo id="f5650.0" depart="243.00" departLane="E1D1_2" departPos="121.68" departSpeed="13.90" departDelay="0.00" arrival="265.00" arrivalLane="D1D0_3" arrivalPos="187.40" arrivalSpeed="13.77" duration="22.00" routeLength="262.23" waitingTime="0.00" waitingCount="0" stopTime="0.00" timeLoss="2.37" rerouteNo="0" devices="tripinfo_f5650.0 routing_f5650.0 emissions_f5650.0" vType="car" speedFactor="1.01" vaporized="">
        <emissions CO_abs="319.54" CO2_abs="56020.97" HC_abs="2.13" PMx_abs="6.04" NOx_abs="19.37" fuel_abs="18161.27" electricity_abs="0.00"/>
    </tripinfo>
    <tripinfo id="f7847.0" depart="233.00" departLane="E3D3_1" departPos="162.55" departSpeed="12.58" departDelay="0.00" arrival="267.00" arrivalLane="C3B3_0" arrivalPos="172.80" arrivalSpeed="11.59" duration="34.00" routeLength="410.25" waitingTime="0.00" waitingCount="0" stopTime="0.00" timeLoss="1.22" rerouteNo="1" devices="tripinfo_f7847.0 routing_f7847.0 emissions_f7847.0" vType="car" speedFactor="0.91" vaporized="">
        <emissions CO_abs="249.82" CO2_abs="60320.11" HC_abs="1.69" PMx_abs="9.17" NOx_abs="21.91" fuel_abs="19555.21" electricity_abs="0.00"/>
    </tripinfo>
    <tripinfo id="f4146.0" depart="200.00" departLane="A4B4_1" departPos="16.03" departSpeed="13.90" departDelay="0.00" arrival="268.00" arrivalLane="C4C5_2" arrivalPos="186.40" arrivalSpeed="13.88" duration="68.00" routeLength="581.28" waitingTime="10.00" waitingCount="2" stopTime="0.00" timeLoss="24.63" rerouteNo="1" devices="tripinfo_f4146.0 routing_f4146.0 emissions_f4146.0" vType="car" speedFactor="1.02" vaporized="">
        <emissions CO_abs="649.56" CO2_abs="160090.25" HC_abs="4.36" PMx_abs="15.45" NOx_abs="55.27" fuel_abs="51899.30" electricity_abs="0.00"/>
    </tripinfo>
    <tripinfo id="f5653.0" depart="180.00" departLane="E1D1_2" departPos="128.43" departSpeed="13.90" departDelay="0.00" arrival="274.00" arrivalLane="B1A1_0" arrivalPos="186.40" arrivalSpeed="13.30" duration="94.00" routeLength="657.97" waitingTime="39.00" waitingCount="1" stopTime="0.00" timeLoss="46.05" rerouteNo="1" devices="tripinfo_f5653.0 routing_f5653.0 emissions_f5653.0" vType="car" speedFactor="1.02" vaporized="">
        <emissions CO_abs="631.75" CO2_abs="178097.27" HC_abs="4.25" PMx_abs="14.02" NOx_abs="65.20" fuel_abs="57737.33" electricity_abs="0.00"/>
    </tripinfo>
    <tripinfo id="f4050.0" depart="215.00" departLane="D0D1_2" departPos="111.07" departSpeed="12.04" departDelay="1.00" arrival="277.00" arrivalLane="B1B0_3" arrivalPos="187.40" arrivalSpeed="11.70" duration="62.00" routeLength="683.95" waitingTime="0.00" waitingCount="0" stopTime="0.00" timeLoss="4.18" rerouteNo="1" devices="tripinfo_f4050.0 routing_f4050.0 emissions_f4050.0" vType="car" speedFactor="0.87" vaporized="">
        <emissions CO_abs="510.52" CO2_abs="121478.72" HC_abs="3.42" PMx_abs="14.92" NOx_abs="42.89" fuel_abs="39382.08" electricity_abs="0.00"/>
    </tripinfo>
    <tripinfo id="f4191.0" depart="200.00" departLane="D5D4_1" departPos="38.82" departSpeed="10.53" departDelay="0.00" arrival="279.00" arrivalLane="B4B5_1" arrivalPos="187.40" arrivalSpeed="9.69" duration="79.00" routeLength="725.26" waitingTime="0.00" waitingCount="0" stopTime="0.00" timeLoss="8.23" rerouteNo="1" devices="tripinfo_f4191.0 routing_f4191.0 emissions_f4191.0" vType="car" speedFactor="0.76" vaporized="">
        <emissions CO_abs="474.65" CO2_abs="140145.51" HC_abs="3.17" PMx_abs="14.61" NOx_abs="48.06" fuel_abs="45433.56" electricity_abs="0.00"/>
    </tripinfo>
    <tripinfo id="f5594.0" depart="182.00" departLane="D3E3_1" departPos="80.55" departSpeed="13.47" departDelay="0.00" arrival="284.00" arrivalLane="C4C5_0" arrivalPos="186.40" arrivalSpeed="12.93" duration="102.00" routeLength="882.30" waitingTime="20.00" waitingCount="2" stopTime="0.00" timeLoss="33.55" rerouteNo="1" devices="tripinfo_f5594.0 routing_f5594.0 emissions_f5594.0" vType="car" speedFactor="0.97" vaporized="">
        <emissions CO_abs="1030.83" CO2_abs="230369.96" HC_abs="6.88" PMx_abs="19.96" NOx_abs="80.88" fuel_abs="74683.06" electricity_abs="0.00"/>
    </tripinfo>
    <tripinfo id="f4761.0" depart="197.00" departLane="D5D4_3" departPos="57.68" departSpeed="12.71" departDelay="0.00" arrival="288.00" arrivalLane="B4B3_3" arrivalPos="174.80" arrivalSpeed="2.88" duration="91.00" routeLength="709.27" waitingTime="11.00" waitingCount="2" stopTime="0.00" timeLoss="33.36" rerouteNo="1" devices="tripinfo_f4761.0 routing_f4761.0 emissions_f4761.0" vType="car" speedFactor="0.92" vaporized="">
        <emissions CO_abs="617.87" CO2_abs="176183.21" HC_abs="4.14" PMx_abs="15.15" NOx_abs="61.26" fuel_abs="57116.52" electricity_abs="0.00"/>
    </tripinfo>
    <tripinfo id="f7932.0" depart="186.00" departLane="E3E4_1" departPos="68.53" departSpeed="13.75" departDelay="0.00" arrival="291.00" arrivalLane="B4B3_3" arrivalPos="174.80" arrivalSpeed="6.38" duration="105.00" routeLength="900.09" waitingTime="12.00" waitingCount="3" stopTime="0.00" timeLoss="37.92" rerouteNo="1" devices="tripinfo_f7932.0 routing_f7932.0 emissions_f7932.0" vType="car" speedFactor="0.99" vaporized="">
        <emissions CO_abs="1041.90" CO2_abs="237903.40" HC_abs="6.96" PMx_abs="20.31" NOx_abs="82.06" fuel_abs="77125.09" electricity_abs="0.00"/>
    </tripinfo>
    <tripinfo id="f_4.2" depart="120.00" departLane="C5C4_0" departPos="12.10" departSpeed="0.00" departDelay="0.00" arrival="292.00" arrivalLane="C1C0_0" arrivalPos="186.40" arrivalSpeed="13.78" duration="172.00" routeLength="987.90" waitingTime="71.00" waitingCount="2" stopTime="0.00" timeLoss="100.59" rerouteNo="0" devices="tripinfo_f_4.2 emissions_f_4.2" vType="t_0" speedFactor="1.00" vaporized="">
        <emissions CO_abs="427.88" CO2_abs="1646297.59" HC_abs="33.31" PMx_abs="262.77" NOx_abs="822.94" fuel_abs="529067.30" electricity_abs="0.00"/>
    </tripinfo>
    <tripinfo id="f_5.2" depart="120.00" departLane="C0C1_0" departPos="12.10" departSpeed="0.00" departDelay="0.00" arrival="293.00" arrivalLane="C4C5_0" arrivalPos="186.40" arrivalSpeed="13.45" duration="173.00" routeLength="987.90" waitingTime="73.00" waitingCount="2" stopTime="0.00" timeLoss="101.46" rerouteNo="0" devices="tripinfo_f_5.2 emissions_f_5.2" vType="t_0" speedFactor="1.00" vaporized="">
        <emissions CO_abs="426.18" CO2_abs="1631877.01" HC_abs="33.07" PMx_abs="260.58" NOx_abs="816.20" fuel_abs="524433.36" electricity_abs="0.00"/>
    </tripinfo>
    <tripinfo id="f4149.0" depart="208.00" departLane="A4B4_0" departPos="63.91" departSpeed="13.63" departDelay="0.00" arrival="295.00" arrivalLane="E4F4_0" arrivalPos="186.40" arrivalSpeed="13.27" duration="87.00" routeLength="936.09" waitingTime="6.00" waitingCount="1" stopTime="0.00" timeLoss="17.96" rerouteNo="1" devices="tripinfo_f4149.0 routing_f4149.0 emissions_f4149.0" vType="car" speedFactor="0.98" vaporized="">
        <emissions CO_abs="806.13" CO2_abs="176060.23" HC_abs="5.43" PMx_abs="20.77" NOx_abs="62.53" fuel_abs="57076.73" electricity_abs="0.00"/>
    </tripinfo>
    <tripinfo id="f5253.0" depart="194.00" departLane="C2B2_2" departPos="38.56" departSpeed="10.45" departDelay="0.00" arrival="299.00" arrivalLane="B1A1_0" arrivalPos="186.40" arrivalSpeed="10.24" duration="105.00" routeLength="527.39" waitingTime="38.00" waitingCount="3" stopTime="0.00" timeLoss="52.83" rerouteNo="1" devices="tripinfo_f5253.0 routing_f5253.0 emissions_f5253.0" vType="car" speedFactor="0.75" vaporized="">
        <emissions CO_abs="375.60" CO2_abs="180639.91" HC_abs="2.50" PMx_abs="9.86" NOx_abs="64.06" fuel_abs="58561.46" electricity_abs="0.00"/>
    </tripinfo>
    <tripinfo id="f_1.10" depart="31.00" departLane="D0D1_0" departPos="1.70" departSpeed="0.00" departDelay="4.82" arrival="307.00" arrivalLane="D4D5_0" arrivalPos="187.40" arrivalSpeed="6.28" duration="276.00" routeLength="998.30" waitingTime="83.00" waitingCount="3" stopTime="0.00" timeLoss="120.23" rerouteNo="0" devices="tripinfo_f_1.10 emissions_f_1.10" vType="DEFAULT_BIKETYPE" speedFactor="1.15" vaporized="">
        <emissions CO_abs="0.00" CO2_abs="0.00" HC_abs="0.00" PMx_abs="0.00" NOx_abs="0.00" fuel_abs="0.00" electricity_abs="0.00"/>
    </tripinfo>
    <tripinfo id="f_1.11" depart="37.00" departLane="D0D1_0" departPos="1.70" departSpeed="0.00" departDelay="0.18" arrival="307.00" arrivalLane="D4D5_1" arrivalPos="187.40" arrivalSpeed="5.97" duration="270.00" routeLength="998.30" waitingTime="77.00" waitingCount="3" stopTime="0.00" timeLoss="117.23" rerouteNo="0" devices="tripinfo_f_1.11 emissions_f_1.11" vType="DEFAULT_BIKETYPE" speedFactor="1.18" vaporized="">
        <emissions CO_abs="0.00" CO2_abs="0.00" HC_abs="0.00" PMx_abs="0.00" NOx_abs="0.00" fuel_abs="0.00" electricity_abs="0.00"/>
    </tripinfo>
    <tripinfo id="f_5.3" depart="180.00" departLane="C0C1_0" departPos="12.10" departSpeed="0.00" departDelay="0.00" arrival="307.00" arrivalLane="C4C5_0" arrivalPos="186.40" arrivalSpeed="13.77" duration="127.00" routeLength="987.90" waitingTime="37.00" waitingCount="1" stopTime="0.00" timeLoss="55.00" rerouteNo="0" devices="tripinfo_f_5.3 emissions_f_5.3" vType="t_0" speedFactor="1.00" vaporized="">
        <emissions CO_abs="309.19" CO2_abs="1331887.26" HC_abs="25.81" PMx_abs="192.66" NOx_abs="611.52" fuel_abs="428024.22" electricity_abs="0.00"/>
    </tripinfo>
    <tripinfo id="f_0.14" depart="52.00" departLane="D5D4_0" departPos="1.70" departSpeed="0.00" departDelay="3.65" arrival="308.00" arrivalLane="D1D0_0" arrivalPos="187.40" arrivalSpeed="5.79" duration="256.00" routeLength="998.30" waitingTime="66.00" waitingCount="3" stopTime="0.00" timeLoss="97.99" rerouteNo="0" devices="tripinfo_f_0.14 emissions_f_0.14" vType="DEFAULT_BIKETYPE" speedFactor="1.14" vaporized="">
        <emissions CO_abs="0.00" CO2_abs="0.00" HC_abs="0.00" PMx_abs="0.00" NOx_abs="0.00" fuel_abs="0.00" electricity_abs="0.00"/>
    </tripinfo>
    <tripinfo id="f_0.13" depart="50.00" departLane="D5D4_0" departPos="1.70" departSpeed="0.00" departDelay="5.22" arrival="309.00" arrivalLane="D1D0_0" arrivalPos="187.40" arrivalSpeed="6.40" duration="259.00" routeLength="998.30" waitingTime="62.00" waitingCount="4" stopTime="0.00" timeLoss="104.97" rerouteNo="0" devices="tripinfo_f_0.13 emissions_f_0.13" vType="DEFAULT_BIKETYPE" speedFactor="1.17" vaporized="">
        <emissions CO_abs="0.00" CO2_abs="0.00" HC_abs="0.00" PMx_abs="0.00" NOx_abs="0.00" fuel_abs="0.00" electricity_abs="0.00"/>
    </tripinfo>
    <tripinfo id="f_4.3" depart="180.00" departLane="C5C4_0" departPos="12.10" departSpeed="0.00" departDelay="0.00" arrival="309.00" arrivalLane="C1C0_0" arrivalPos="186.40" arrivalSpeed="13.48" duration="129.00" routeLength="987.90" waitingTime="38.00" waitingCount="1" stopTime="0.00" timeLoss="56.93" rerouteNo="0" devices="tripinfo_f_4.3 emissions_f_4.3" vType="t_0" speedFactor="1.00" vaporized="">
        <emissions CO_abs="314.59" CO2_abs="1344584.29" HC_abs="26.16" PMx_abs="197.02" NOx_abs="624.33" fuel_abs="432104.59" electricity_abs="0.00"/>
    </tripinfo>