<?xml version="1.0" encoding="UTF-8"?>

<!-- generated on 2026-01-29T21:58:18.128689+01:00 by Eclipse SUMO sumo 1.25.0
<sumoConfiguration xmlns:xsi="http://www.w3.org/2001/XMLSchema-instance" xsi:noNamespaceSchemaLocation="http://sumo.dlr.de/xsd/sumoConfiguration.xsd">

    <input>
        <net-file value="c:\Users\alera\Desktop\ENTPE\MoCoM\MOCOM_project_2\Network with RL control\ff.net.xml"/>
        <route-files value="c:\Users\alera\Desktop\ENTPE\MoCoM\MOCOM_project_2\Network with RL control\ff_heterogeneous.rou.xml"/>
    </input>

    <output>
        <tripinfo-output value="c:\Users\alera\Desktop\ENTPE\MoCoM\MOCOM_project_2\Network with RL control\tripinfo.xml"/>
        <edgedata-output value="c:\Users\alera\Desktop\ENTPE\MoCoM\MOCOM_project_2\Network with RL control\bus_results.xml"/>
    </output>

    <time>
        <begin value="0"/>
        <end value="3600"/>
    </time>

    <report>
        <no-step-log value="true"/>
    </report>

    <traci_server>
        <remote-port value="52212"/>
    </traci_server>

    <gui_only>
        <quit-on-end value="true"/>
    </gui_only>

</sumoConfiguration>
-->

<tripinfos xmlns:xsi="http://www.w3.org/2001/XMLSchema-instance" xsi:noNamespaceSchemaLocation="http://sumo.dlr.de/xsd/tripinfo_file.xsd">
    <tripinfo id="f_4.0" depart="0.00" departLane="C5C4_0" departPos="12.10" departSpeed="0.00" departDelay="0.00" arrival="127.00" arrivalLane="C1C0_0" arrivalPos="186.40" arrivalSpeed="13.83" duration="127.00" routeLength="987.90" waitingTime="37.00" waitingCount="1" stopTime="0.00" timeLoss="55.69" rerouteNo="0" devices="tripinfo_f_4.0" vType="t_0" speedFactor="1.00" vaporized=""/>
    <tripinfo id="f_5.0" depart="0.00" departLane="C0C1_0" departPos="12.10" departSpeed="0.00" departDelay="0.00" arrival="127.00" arrivalLane="C4C5_0" arrivalPos="186.40" arrivalSpeed="13.30" duration="127.00" routeLength="987.90" waitingTime="38.00" waitingCount="1" stopTime="0.00" timeLoss="55.25" rerouteNo="0" devices="tripinfo_f_5.0" vType="t_0" speedFactor="1.00" vaporized=""/>
    <tripinfo id="f_4.1" depart="60.00" departLane="C5C4_0" departPos="12.10" departSpeed="0.00" departDelay="0.00" arrival="202.00" arrivalLane="C1C0_0" arrivalPos="186.40" arrivalSpeed="13.34" duration="142.00" routeLength="987.90" waitingTime="44.00" waitingCount="2" stopTime="0.00" timeLoss="70.30" rerouteNo="0" devices="tripinfo_f_4.1" vType="t_0" speedFactor="1.00" vaporized=""/>
    <tripinfo id="f_5.1" depart="60.00" departLane="C0C1_0" departPos="12.10" departSpeed="0.00" departDelay="0.00" arrival="202.00" arrivalLane="C4C5_0" arrivalPos="186.40" arrivalSpeed="13.44" duration="142.00" routeLength="987.90" waitingTime="46.00" waitingCount="2" stopTime="0.00" timeLoss="70.82" rerouteNo="0" devices="tripinfo_f_5.1" vType="t_0" speedFactor="1.00" vaporized=""/>
    <tripinfo id="f_0.0" depart="1.00" departLane="D5D4_0" departPos="1.70" departSpeed="0.00" departDelay="0.65" arrival="220.00" arrivalLane="D1D0_0" arrivalPos="187.40" arrivalSpeed="5.31" duration="219.00" routeLength="998.30" waitingTime="26.00" waitingCount="2" stopTime="0.00" timeLoss="49.45" rerouteNo="0" devices="tripinfo_f_0.0" vType="DEFAULT_BIKETYPE" speedFactor="1.06" vaporized=""/>
    <tripinfo id="f_1.1" depart="4.00" departLane="D0D1_0" departPos="1.70" departSpeed="0.00" departDelay="2.07" arrival="220.00" arrivalLane="D4D5_0" arrivalPos="187.40" arrivalSpeed="5.49" duration="216.00" routeLength="998.30" waitingTime="28.00" waitingCount="2" stopTime="0.00" timeLoss="49.60" rerouteNo="0" devices="tripinfo_f_1.1" vType="DEFAULT_BIKETYPE" speedFactor="1.08" vaporized=""/>
    <tripinfo id="f_3.0" depart="3.00" departLane="B5B4_0" departPos="1.70" departSpeed="0.00" departDelay="0.85" arrival="221.00" arrivalLane="B1B0_0" arrivalPos="187.40" arrivalSpeed="5.47" duration="218.00" routeLength="998.30" waitingTime="22.00" waitingCount="2" stopTime="0.00" timeLoss="43.47" rerouteNo="0" devices="tripinfo_f_3.0" vType="DEFAULT_BIKETYPE" speedFactor="1.03" vaporized=""/>
    <tripinfo id="f_1.0" depart="2.00" departLane="D0D1_0" departPos="1.70" departSpeed="0.00" departDelay="0.97" arrival="222.00" arrivalLane="D4D5_0" arrivalPos="187.40" arrivalSpeed="5.23" duration="220.00" routeLength="998.30" waitingTime="21.00" waitingCount="2" stopTime="0.00" timeLoss="41.95" rerouteNo="0" devices="tripinfo_f_1.0" vType="DEFAULT_BIKETYPE" speedFactor="1.01" vaporized=""/>
    <tripinfo id="f7091.0" depart="191.00" departLane="D2C2_0" departPos="40.90" departSpeed="13.72" departDelay="0.00" arrival="244.00" arrivalLane="C2B2_0" arrivalPos="172.80" arrivalSpeed="13.07" duration="53.00" routeLength="331.90" waitingTime="22.00" waitingCount="1" stopTime="0.00" timeLoss="27.97" rerouteNo="0" devices="tripinfo_f7091.0 routing_f7091.0" vType="car" speedFactor="0.99" vaporized=""/>
    <tripinfo id="f5254.0" depart="214.00" departLane="C2B2_2" departPos="101.80" departSpeed="12.04" departDelay="0.00" arrival="248.00" arrivalLane="B2A2_0" arrivalPos="186.40" arrivalSpeed="12.01" duration="34.00" routeLength="284.60" waitingTime="0.00" waitingCount="0" stopTime="0.00" timeLoss="9.51" rerouteNo="0" devices="tripinfo_f5254.0 routing_f5254.0" vType="car" speedFactor="0.87" vaporized=""/>
    <tripinfo id="f_1.9" depart="28.00" departLane="D0D1_0" departPos="1.70" departSpeed="0.00" departDelay="1.96" arrival="249.00" arrivalLane="D4D5_0" arrivalPos="187.40" arrivalSpeed="6.40" duration="221.00" routeLength="998.30" waitingTime="45.00" waitingCount="3" stopTime="0.00" timeLoss="68.12" rerouteNo="0" devices="tripinfo_f_1.9" vType="DEFAULT_BIKETYPE" speedFactor="1.18" vaporized=""/>
    <tripinfo id="f_3.8" depart="33.00" departLane="B5B4_0" departPos="1.70" departSpeed="0.00" departDelay="5.07" arrival="249.00" arrivalLane="B1B0_0" arrivalPos="187.40" arrivalSpeed="5.91" duration="216.00" routeLength="998.30" waitingTime="42.00" waitingCount="2" stopTime="0.00" timeLoss="62.57" rerouteNo="0" devices="tripinfo_f_3.8" vType="DEFAULT_BIKETYPE" speedFactor="1.17" vaporized=""/>
    <tripinfo id="f_2.2" depart="20.00" departLane="B0B1_0" departPos="1.70" departSpeed="0.00" departDelay="0.40" arrival="250.00" arrivalLane="B4B5_0" arrivalPos="187.40" arrivalSpeed="6.17" duration="230.00" routeLength="998.30" waitingTime="50.00" waitingCount="2" stopTime="0.00" timeLoss="74.67" rerouteNo="0" devices="tripinfo_f_2.2" vType="DEFAULT_BIKETYPE" speedFactor="1.16" vaporized=""/>
    <tripinfo id="f_1.8" depart="26.00" departLane="D0D1_0" departPos="1.70" departSpeed="0.00" departDelay="0.77" arrival="251.00" arrivalLane="D4D5_1" arrivalPos="187.40" arrivalSpeed="6.13" duration="225.00" routeLength="998.30" waitingTime="46.00" waitingCount="2" stopTime="0.00" timeLoss="65.82" rerouteNo="0" devices="tripinfo_f_1.8" vType="DEFAULT_BIKETYPE" speedFactor="1.13" vaporized=""/>
    <tripinfo id="f_1.5" depart="14.00" departLane="D0D1_0" departPos="1.70" departSpeed="0.00" departDelay="1.92" arrival="252.00" arrivalLane="D4D5_0" arrivalPos="187.40" arrivalSpeed="5.87" duration="238.00" routeLength="998.30" waitingTime="58.00" waitingCount="2" stopTime="0.00" timeLoss="77.76" rerouteNo="0" devices="tripinfo_f_1.5" vType="DEFAULT_BIKETYPE" speedFactor="1.12" vaporized=""/>
    <tripinfo id="f_2.0" depart="10.00" departLane="B0B1_0" departPos="1.70" departSpeed="0.00" departDelay="0.64" arrival="253.00" arrivalLane="B4B5_0" arrivalPos="187.40" arrivalSpeed="5.64" duration="243.00" routeLength="998.30" waitingTime="58.00" waitingCount="2" stopTime="0.00" timeLoss="78.21" rerouteNo="0" devices="tripinfo_f_2.0" vType="DEFAULT_BIKETYPE" speedFactor="1.09" vaporized=""/>
    <tripinfo id="f_3.12" depart="45.00" departLane="B5B4_0" departPos="1.70" departSpeed="0.00" departDelay="0.55" arrival="254.00" arrivalLane="B1B0_0" arrivalPos="187.40" arrivalSpeed="5.49" duration="209.00" routeLength="998.30" waitingTime="19.00" waitingCount="2" stopTime="0.00" timeLoss="44.37" rerouteNo="0" devices="tripinfo_f_3.12" vType="DEFAULT_BIKETYPE" speedFactor="1.10" vaporized=""/>
    <tripinfo id="f_1.12" depart="39.00" departLane="D0D1_0" departPos="1.70" departSpeed="0.00" departDelay="2.07" arrival="255.00" arrivalLane="D4D5_0" arrivalPos="187.40" arrivalSpeed="5.59" duration="216.00" routeLength="998.30" waitingTime="29.00" waitingCount="2" stopTime="0.00" timeLoss="52.55" rerouteNo="0" devices="tripinfo_f_1.12" vType="DEFAULT_BIKETYPE" speedFactor="1.10" vaporized=""/>
    <tripinfo id="f_2.8" depart="42.00" departLane="B0B1_0" departPos="1.70" departSpeed="0.00" departDelay="0.39" arrival="255.00" arrivalLane="B4B5_0" arrivalPos="187.40" arrivalSpeed="5.99" duration="213.00" routeLength="998.30" waitingTime="25.00" waitingCount="2" stopTime="0.00" timeLoss="47.64" rerouteNo="0" devices="tripinfo_f_2.8" vType="DEFAULT_BIKETYPE" speedFactor="1.09" vaporized=""/>
    <tripinfo id="f_2.14" depart="58.00" departLane="B0B1_0" departPos="1.70" departSpeed="0.00" departDelay="5.62" arrival="255.00" arrivalLane="B4B5_1" arrivalPos="187.40" arrivalSpeed="5.83" duration="197.00" routeLength="998.30" waitingTime="13.00" waitingCount="1" stopTime="0.00" timeLoss="35.58" rerouteNo="0" devices="tripinfo_f_2.14" vType="DEFAULT_BIKETYPE" speedFactor="1.12" vaporized=""/>
    <tripinfo id="f4176.0" depart="196.00" departLane="C5C4_1" departPos="16.59" departSpeed="13.29" departDelay="0.00" arrival="256.00" arrivalLane="B4B5_1" arrivalPos="187.40" arrivalSpeed="7.83" duration="60.00" routeLength="547.28" waitingTime="0.00" waitingCount="0" stopTime="0.00" timeLoss="17.09" rerouteNo="1" devices="tripinfo_f4176.0 routing_f4176.0" vType="car" speedFactor="0.96" vaporized=""/>
    <tripinfo id="f_2.1" depart="12.00" departLane="B0B1_0" departPos="1.70" departSpeed="0.00" departDelay="0.91" arrival="257.00" arrivalLane="B4B5_1" arrivalPos="187.40" arrivalSpeed="5.33" duration="245.00" routeLength="998.30" waitingTime="50.00" waitingCount="2" stopTime="0.00" timeLoss="72.91" rerouteNo="0" devices="tripinfo_f_2.1" vType="DEFAULT_BIKETYPE" speedFactor="1.05" vaporized=""/>
    <tripinfo id="f_0.2" depart="12.00" departLane="D5D4_0" departPos="1.70" departSpeed="0.00" departDelay="0.56" arrival="258.00" arrivalLane="D1D0_0" arrivalPos="187.40" arrivalSpeed="5.42" duration="246.00" routeLength="998.30" waitingTime="49.00" waitingCount="2" stopTime="0.00" timeLoss="70.86" rerouteNo="0" devices="tripinfo_f_0.2" vType="DEFAULT_BIKETYPE" speedFactor="1.03" vaporized=""/>
    <tripinfo id="f_3.2" depart="7.00" departLane="B5B4_0" departPos="1.70" departSpeed="0.00" departDelay="2.12" arrival="259.00" arrivalLane="B1B0_0" arrivalPos="187.40" arrivalSpeed="5.30" duration="252.00" routeLength="998.30" waitingTime="59.00" waitingCount="2" stopTime="0.00" timeLoss="80.00" rerouteNo="0" devices="tripinfo_f_3.2" vType="DEFAULT_BIKETYPE" speedFactor="1.05" vaporized=""/>
    <tripinfo id="f_2.3" depart="22.00" departLane="B0B1_0" departPos="1.70" departSpeed="0.00" departDelay="1.02" arrival="259.00" arrivalLane="B4B5_0" arrivalPos="187.40" arrivalSpeed="5.40" duration="237.00" routeLength="998.30" waitingTime="39.00" waitingCount="2" stopTime="0.00" timeLoss="60.24" rerouteNo="0" devices="tripinfo_f_2.3" vType="DEFAULT_BIKETYPE" speedFactor="1.02" vaporized=""/>
    <tripinfo id="f5357.0" depart="186.00" departLane="C3C4_2" departPos="162.27" departSpeed="7.52" departDelay="0.00" arrival="260.00" arrivalLane="E4F4_0" arrivalPos="186.40" arrivalSpeed="13.25" duration="74.00" routeLength="605.96" waitingTime="17.00" waitingCount="1" stopTime="0.00" timeLoss="28.05" rerouteNo="1" devices="tripinfo_f5357.0 routing_f5357.0" vType="car" speedFactor="0.97" vaporized=""/>
    <tripinfo id="f4063.0" depart="195.00" departLane="C0C1_1" departPos="44.99" departSpeed="13.90" departDelay="0.00" arrival="260.00" arrivalLane="E1E0_0" arrivalPos="186.40" arrivalSpeed="13.58" duration="65.00" routeLength="718.67" waitingTime="0.00" waitingCount="0" stopTime="0.00" timeLoss="12.22" rerouteNo="1" devices="tripinfo_f4063.0 routing_f4063.0" vType="car" speedFactor="1.04" vaporized=""/>
    <tripinfo id="f4260.0" depart="199.00" departLane="F1E1_1" departPos="173.00" departSpeed="13.90" departDelay="0.00" arrival="261.00" arrivalLane="C1C0_2" arrivalPos="186.40" arrivalSpeed="13.66" duration="62.00" routeLength="624.31" waitingTime="7.00" waitingCount="1" stopTime="0.00" timeLoss="16.77" rerouteNo="1" devices="tripinfo_f4260.0 routing_f4260.0" vType="car" speedFactor="1.21" vaporized=""/>
    <tripinfo id="f_3.4" depart="23.00" departLane="B5B4_0" departPos="1.70" departSpeed="0.00" departDelay="2.05" arrival="262.00" arrivalLane="B1B0_0" arrivalPos="187.40" arrivalSpeed="5.25" duration="239.00" routeLength="998.30" waitingTime="34.00" waitingCount="2" stopTime="0.00" timeLoss="54.52" rerouteNo="0" devices="tripinfo_f_3.4" vType="DEFAULT_BIKETYPE" speedFactor="0.97" vaporized=""/>
    <tripinfo id="f_1.6" depart="17.00" departLane="D0D1_0" departPos="1.70" departSpeed="0.00" departDelay="4.52" arrival="263.00" arrivalLane="D4D5_0" arrivalPos="187.40" arrivalSpeed="5.29" duration="246.00" routeLength="998.30" waitingTime="43.00" waitingCount="2" stopTime="0.00" timeLoss="64.21" rerouteNo="0" devices="tripinfo_f_1.6" vType="DEFAULT_BIKETYPE" speedFactor="0.99" vaporized=""/>
    <tripinfo id="f4146.0" depart="200.00" departLane="A4B4_1" departPos="16.03" departSpeed="13.90" departDelay="0.00" arrival="268.00" arrivalLane="C4C5_2" arrivalPos="186.40" arrivalSpeed="13.48" duration="68.00" routeLength="581.28" waitingTime="10.00" waitingCount="2" stopTime="0.00" timeLoss="24.61" rerouteNo="1" devices="tripinfo_f4146.0 routing_f4146.0" vType="car" speedFactor="1.02" vaporized=""/>
    <tripinfo id="f7847.0" depart="233.00" departLane="E3D3_1" departPos="162.55" departSpeed="12.58" departDelay="0.00" arrival="268.00" arrivalLane="C3B3_0" arrivalPos="172.80" arrivalSpeed="11.76" duration="35.00" routeLength="410.25" waitingTime="0.00" waitingCount="0" stopTime="0.00" timeLoss="1.49" rerouteNo="1" devices="tripinfo_f7847.0 routing_f7847.0" vType="car" speedFactor="0.91" vaporized=""/>
    <tripinfo id="f4034.0" depart="202.00" departLane="E0E1_2" departPos="77.76" departSpeed="13.45" departDelay="0.00" arrival="273.00" arrivalLane="C1C0_2" arrivalPos="186.40" arrivalSpeed="12.59" duration="71.00" routeLength="716.86" waitingTime="7.00" waitingCount="1" stopTime="0.00" timeLoss="15.95" rerouteNo="1" devices="tripinfo_f4034.0 routing_f4034.0" vType="car" speedFactor="0.97" vaporized=""/>
    <tripinfo id="f5653.0" depart="180.00" departLane="E1D1_2" departPos="128.43" departSpeed="13.90" departDelay="0.00" arrival="275.00" arrivalLane="B1A1_0" arrivalPos="186.40" arrivalSpeed="13.22" duration="95.00" routeLength="657.97" waitingTime="39.00" waitingCount="1" stopTime="0.00" timeLoss="46.85" rerouteNo="1" devices="tripinfo_f5653.0 routing_f5653.0" vType="car" speedFactor="1.02" vaporized=""/>
    <tripinfo id="f5419.0" depart="241.00" departLane="C4D4_1" departPos="36.58" departSpeed="13.90" departDelay="0.00" arrival="276.00" arrivalLane="D4D5_3" arrivalPos="187.40" arrivalSpeed="13.19" duration="35.00" routeLength="347.33" waitingTime="2.00" waitingCount="1" stopTime="0.00" timeLoss="8.73" rerouteNo="0" devices="tripinfo_f5419.0 routing_f5419.0" vType="car" speedFactor="1.12" vaporized=""/>
    <tripinfo id="f5650.0" depart="243.00" departLane="E1D1_0" departPos="82.77" departSpeed="13.90" departDelay="0.00" arrival="276.00" arrivalLane="D1D0_3" arrivalPos="187.40" arrivalSpeed="13.71" duration="33.00" routeLength="301.14" waitingTime="2.00" waitingCount="1" stopTime="0.00" timeLoss="9.90" rerouteNo="0" devices="tripinfo_f5650.0 routing_f5650.0" vType="car" speedFactor="1.01" vaporized=""/>
    <tripinfo id="f4191.0" depart="200.00" departLane="D5D4_1" departPos="38.82" departSpeed="10.53" departDelay="0.00" arrival="279.00" arrivalLane="B4B5_1" arrivalPos="187.40" arrivalSpeed="10.12" duration="79.00" routeLength="725.26" waitingTime="0.00" waitingCount="0" stopTime="0.00" timeLoss="8.02" rerouteNo="1" devices="tripinfo_f4191.0 routing_f4191.0" vType="car" speedFactor="0.76" vaporized=""/>
    <tripinfo id="f4761.0" depart="197.00" departLane="D5D4_3" departPos="57.68" departSpeed="12.71" departDelay="0.00" arrival="284.00" arrivalLane="B4B3_2" arrivalPos="174.80" arrivalSpeed="5.17" duration="87.00" routeLength="709.27" waitingTime="9.00" waitingCount="3" stopTime="0.00" timeLoss="29.47" rerouteNo="1" devices="tripinfo_f4761.0 routing_f4761.0" vType="car" speedFactor="0.92" vaporized=""/>
    <tripinfo id="f7932.0" depart="186.00" departLane="E3E4_1" departPos="68.53" departSpeed="13.75" departDelay="0.00" arrival="287.00" arrivalLane="B4B3_2" arrivalPos="174.80" arrivalSpeed="7.82" duration="101.00" routeLength="900.09" waitingTime="12.00" waitingCount="2" stopTime="0.00" timeLoss="33.92" rerouteNo="1" devices="tripinfo_f7932.0 routing_f7932.0" vType="car" speedFactor="0.99" vaporized=""/>
    <tripinfo id="f4209.0" depart="262.00" departLane="E5E4_1" departPos="159.23" departSpeed="10.72" departDelay="0.00" arrival="290.00" arrivalLane="E4F4_2" arrivalPos="186.40" arrivalSpeed="13.02" duration="28.00" routeLength="238.08" waitingTime="3.00" waitingCount="1" stopTime="0.00" timeLoss="9.76" rerouteNo="0" devices="tripinfo_f4209.0 routing_f4209.0" vType="car" speedFactor="1.04" vaporized=""/>
    <tripinfo id="f_5.2" depart="120.00" departLane="C0C1_0" departPos="12.10" departSpeed="0.00" departDelay="0.00" arrival="292.00" arrivalLane="C4C5_0" arrivalPos="186.40" arrivalSpeed="13.44" duration="172.00" routeLength="987.90" waitingTime="72.00" waitingCount="2" stopTime="0.00" timeLoss="100.58" rerouteNo="0" devices="tripinfo_f_5.2" vType="t_0" speedFactor="1.00" vaporized=""/>
    <tripinfo id="f4988.0" depart="232.00" departLane="F2E2_1" departPos="158.58" departSpeed="13.70" departDelay="0.00" arrival="292.00" arrivalLane="E3D3_2" arrivalPos="172.80" arrivalSpeed="13.17" duration="60.00" routeLength="406.96" waitingTime="17.00" waitingCount="3" stopTime="0.00" timeLoss="29.51" rerouteNo="1" devices="tripinfo_f4988.0 routing_f4988.0" vType="car" speedFactor="1.02" vaporized=""/>
    <tripinfo id="f_4.2" depart="120.00" departLane="C5C4_0" departPos="12.10" departSpeed="0.00" departDelay="0.00" arrival="293.00" arrivalLane="C1C0_0" arrivalPos="186.40" arrivalSpeed="13.49" duration="173.00" routeLength="987.90" waitingTime="72.00" waitingCount="2" stopTime="0.00" timeLoss="100.97" rerouteNo="0" devices="tripinfo_f_4.2" vType="t_0" speedFactor="1.00" vaporized=""/>
    <tripinfo id="f5253.0" depart="194.00" departLane="C2B2_2" departPos="38.56" departSpeed="10.45" departDelay="0.00" arrival="298.00" arrivalLane="B1A1_0" arrivalPos="186.40" arrivalSpeed="9.65" duration="104.00" routeLength="527.39" waitingTime="38.00" waitingCount="3" stopTime="0.00" timeLoss="51.47" rerouteNo="1" devices="tripinfo_f5253.0 routing_f5253.0" vType="car" speedFactor="0.75" vaporized=""/>
    <tripinfo id="f4255.0" depart="221.00" departLane="F2E2_2" departPos="2.73" departSpeed="13.90" departDelay="0.00" arrival="305.00" arrivalLane="E4F4_0" arrivalPos="186.40" arrivalSpeed="13.56" duration="84.00" routeLength="760.93" waitingTime="17.00" waitingCount="1" stopTime="0.00" timeLoss="27.60" rerouteNo="1" devices="tripinfo_f4255.0 routing_f4255.0" vType="car" speedFactor="1.02" vaporized=""/>
    <tripinfo id="f4242.0" depart="196.00" departLane="F3E3_2" departPos="133.38" departSpeed="13.90" departDelay="0.00" arrival="306.00" arrivalLane="E1F1_2" arrivalPos="186.40" arrivalSpeed="13.77" duration="110.00" routeLength="661.24" waitingTime="47.00" waitingCount="2" stopTime="0.00" timeLoss="61.91" rerouteNo="1" devices="tripinfo_f4242.0 routing_f4242.0" vType="car" speedFactor="1.13" vaporized=""/>
    <tripinfo id="f_5.3" depart="180.00" departLane="C0C1_0" departPos="12.10" departSpeed="0.00" departDelay="0.00" arrival="307.00" arrivalLane="C4C5_0" arrivalPos="186.40" arrivalSpeed="13.59" duration="127.00" routeLength="987.90" waitingTime="37.00" waitingCount="1" stopTime="0.00" timeLoss="55.53" rerouteNo="0" devices="tripinfo_f_5.3" vType="t_0" speedFactor="1.00" vaporized=""/>
    <tripinfo id="f_6.0" depart="180.00" departLane="E5E4_0" departPos="12.10" departSpeed="0.00" departDelay="0.00" arrival="307.00" arrivalLane="E1E0_1" arrivalPos="186.40" arrivalSpeed="13.72" duration="127.00" routeLength="987.90" waitingTime="38.00" waitingCount="1" stopTime="0.00" timeLoss="55.49" rerouteNo="0" devices="tripinfo_f_6.0" vType="t_0" speedFactor="1.00" vaporized=""/>
    <tripinfo id="f_1.10" depart="31.00" departLane="D0D1_0" departPos="1.70" departSpeed="0.00" departDelay="4.82" arrival="308.00" arrivalLane="D4D5_0" arrivalPos="187.40" arrivalSpeed="6.09" duration="277.00" routeLength="998.30" waitingTime="80.00" waitingCount="3" stopTime="0.00" timeLoss="120.50" rerouteNo="0" devices="tripinfo_f_1.10" vType="DEFAULT_BIKETYPE" speedFactor="1.15" vaporized=""/>
    <tripinfo id="f_0.14" depart="52.00" departLane="D5D4_0" departPos="1.70" departSpeed="0.00" departDelay="3.65" arrival="308.00" arrivalLane="D1D0_0" arrivalPos="187.40" arrivalSpeed="6.16" duration="256.00" routeLength="998.30" waitingTime="65.00" waitingCount="3" stopTime="0.00" timeLoss="98.03" rerouteNo="0" devices="tripinfo_f_0.14" vType="DEFAULT_BIKETYPE" speedFactor="1.14" vaporized=""/>
    <tripinfo id="f_1.11" depart="37.00" departLane="D0D1_0" departPos="1.70" departSpeed="0.00" departDelay="0.18" arrival="309.00" arrivalLane="D4D5_1" arrivalPos="187.40" arrivalSpeed="6.48" duration="272.00" routeLength="998.30" waitingTime="72.00" waitingCount="3" stopTime="0.00" timeLoss="118.89" rerouteNo="0" devices="tripinfo_f_1.11" vType="DEFAULT_BIKETYPE" speedFactor="1.18" vaporized=""/>
    <tripinfo id="f_0.13" depart="50.00" departLane="D5D4_0" departPos="1.70" departSpeed="0.00" departDelay="5.22" arrival="309.00" arrivalLane="D1D0_1" arrivalPos="187.40" arrivalSpeed="6.35" duration="259.00" routeLength="998.30" waitingTime="62.00" waitingCount="4" stopTime="0.00" timeLoss="104.98" rerouteNo="0" devices="tripinfo_f_0.13" vType="DEFAULT_BIKETYPE" speedFactor="1.17" vaporized=""/>
    <tripinfo id="f5290.0" depart="266.00" departLane="C2C3_2" departPos="24.15" departSpeed="13.90" departDelay="0.00" arrival="309.00" arrivalLane="C4C5_1" arrivalPos="186.40" arrivalSpeed="12.96" duration="43.00" routeLength="562.25" waitingTime="0.00" waitingCount="0" stopTime="0.00" timeLoss="1.65" rerouteNo="1" devices="tripinfo_f5290.0 routing_f5290.0" vType="car" speedFactor="1.08" vaporized=""/>
    <tripinfo id="f_4.3" depart="180.00" departLane="C5C4_0" departPos="12.10" departSpeed="0.00" departDelay="0.00" arrival="310.00" arrivalLane="C1C0_1" arrivalPos="186.40" arrivalSpeed="13.82" duration="130.00" routeLength="987.90" waitingTime="38.00" waitingCount="1" stopTime="0.00" timeLoss="57.90" rerouteNo="0" devices="tripinfo_f_4.3" vType="t_0" speedFactor="1.00" vaporized=""/>
    <tripinfo id="f4242.1" depart="200.00" departLane="F3E3_2" departPos="8.73" departSpeed="13.90" departDelay="0.00" arrival="310.00" arrivalLane="E1F1_2" arrivalPos="186.40" arrivalSpeed="13.62" duration="110.00" routeLength="785.89" waitingTime="33.00" waitingCount="2" stopTime="0.00" timeLoss="51.82" rerouteNo="1" devices="tripinfo_f4242.1 routing_f4242.1" vType="car" speedFactor="1.04" vaporized=""/>
    <tripinfo id="f_1.13" depart="42.00" departLane="D0D1_0" departPos="1.70" departSpeed="0.00" departDelay="1.03" arrival="311.00" arrivalLane="D4D5_0" arrivalPos="187.40" arrivalSpeed="5.54" duration="269.00" routeLength="998.30" waitingTime="67.00" waitingCount="3" stopTime="0.00" timeLoss="95.70" rerouteNo="0" devices="tripinfo_f_1.13" vType="DEFAULT_BIKETYPE" speedFactor="1.04" vaporized=""/>
    <tripinfo id="f_1.14" depart="44.00" departLane="D0D1_0" departPos="1.70" departSpeed="0.00" departDelay="2.40" arrival="311.00" arrivalLane="D4D5_1" arrivalPos="187.40" arrivalSpeed="5.24" duration="267.00" routeLength="998.30" waitingTime="64.00" waitingCount="3" stopTime="0.00" timeLoss="94.34" rerouteNo="0" devices="tripinfo_f_1.14" vType="DEFAULT_BIKETYPE" speedFactor="1.04" vaporized=""/>
    <tripinfo id="f_1.15" depart="49.00" departLane="D0D1_0" departPos="1.70" departSpeed="0.00" departDelay="0.07" arrival="311.00" arrivalLane="D4D5_2" arrivalPos="187.40" arrivalSpeed="5.22" duration="262.00" routeLength="998.30" waitingTime="57.00" waitingCount="3" stopTime="0.00" timeLoss="86.33" rerouteNo="0" devices="tripinfo_f_1.15" vType="DEFAULT_BIKETYPE" speedFactor="1.02" vaporized=""/>
    <tripinfo id="f_2.17" depart="67.00" departLane="B0B1_0" departPos="1.70" departSpeed="0.00" departDelay="0.14" arrival="311.00" arrivalLane="B4B5_0" arrivalPos="187.40" arrivalSpeed="5.55" duration="244.00" routeLength="998.30" waitingTime="52.00" waitingCount="2" stopTime="0.00" timeLoss="72.99" rerouteNo="0" devices="tripinfo_f_2.17" vType="DEFAULT_BIKETYPE" speedFactor="1.06" vaporized=""/>
    <tripinfo id="f5309.0" depart="200.00" departLane="C2D2_2" departPos="117.28" departSpeed="12.36" departDelay="0.00" arrival="311.00" arrivalLane="E4F4_0" arrivalPos="186.40" arrivalSpeed="11.82" duration="111.00" routeLength="848.26" waitingTime="23.00" waitingCount="2" stopTime="0.00" timeLoss="39.96" rerouteNo="1" devices="tripinfo_f5309.0 routing_f5309.0" vType="car" speedFactor="0.89" vaporized=""/>
    <tripinfo id="f4242.2" depart="210.00" departLane="F3E3_2" departPos="23.17" departSpeed="13.90" departDelay="0.00" arrival="311.00" arrivalLane="E1F1_2" arrivalPos="186.40" arrivalSpeed="13.03" duration="101.00" routeLength="771.45" waitingTime="25.00" waitingCount="2" stopTime="0.00" timeLoss="44.60" rerouteNo="1" devices="tripinfo_f4242.2 routing_f4242.2" vType="car" speedFactor="1.07" vaporized=""/>
    <tripinfo id="f4347.0" depart="249.00" departLane="D0D1_1" departPos="173.50" departSpeed="2.50" departDelay="0.00" arrival="311.00" arrivalLane="D1E1_0" arrivalPos="172.80" arrivalSpeed="11.19" duration="62.00" routeLength="194.94" waitingTime="33.00" waitingCount="2" stopTime="0.00" timeLoss="44.30" rerouteNo="0" devices="tripinfo_f4347.0 routing_f4347.0" vType="car" speedFactor="0.83" vaporized=""/>
    <tripinfo id="f_3.3" depart="21.00" departLane="B5B4_0" departPos="1.70" departSpeed="0.00" departDelay="0.63" arrival="312.00" arrivalLane="B1B0_0" arrivalPos="187.40" arrivalSpeed="5.09" duration="291.00" routeLength="998.30" waitingTime="85.00" waitingCount="4" stopTime="0.00" timeLoss="112.61" rerouteNo="0" devices="tripinfo_f_3.3" vType="DEFAULT_BIKETYPE" speedFactor="1.01" vaporized=""/>
    <tripinfo id="f_3.14" depart="52.00" departLane="B5B4_0" departPos="1.70" departSpeed="0.00" departDelay="0.50" arrival="312.00" arrivalLane="B1B0_1" arrivalPos="187.40" arrivalSpeed="5.67" duration="260.00" routeLength="998.30" waitingTime="57.00" waitingCount="3" stopTime="0.00" timeLoss="93.66" rerouteNo="0" devices="tripinfo_f_3.14" vType="DEFAULT_BIKETYPE" speedFactor="1.08" vaporized=""/>
    <tripinfo id="f5246.0" depart="227.00" departLane="C1D1_0" departPos="145.79" departSpeed="13.90" departDelay="0.00" arrival="312.00" arrivalLane="E3F3_0" arrivalPos="186.40" arrivalSpeed="13.82" duration="85.00" routeLength="819.75" waitingTime="7.00" waitingCount="1" stopTime="0.00" timeLoss="24.97" rerouteNo="1" devices="tripinfo_f5246.0 routing_f5246.0" vType="car" speedFactor="1.08" vaporized=""/>
    <tripinfo id="f_1.25" depart="87.00" departLane="D0D1_0" departPos="1.70" departSpeed="0.00" departDelay="2.87" arrival="313.00" arrivalLane="D4D5_0" arrivalPos="187.40" arrivalSpeed="5.99" duration="226.00" routeLength="998.30" waitingTime="36.00" waitingCount="2" stopTime="0.00" timeLoss="65.03" rerouteNo="0" devices="tripinfo_f_1.25" vType="DEFAULT_BIKETYPE" speedFactor="1.12" vaporized=""/>
    <tripinfo id="f_2.6" depart="35.00" departLane="B0B1_0" departPos="1.70" departSpeed="0.00" departDelay="0.63" arrival="314.00" arrivalLane="B4B5_0" arrivalPos="187.40" arrivalSpeed="4.95" duration="279.00" routeLength="998.30" waitingTime="68.00" waitingCount="3" stopTime="0.00" timeLoss="93.75" rerouteNo="0" devices="tripinfo_f_2.6" vType="DEFAULT_BIKETYPE" speedFactor="0.97" vaporized=""/>
    <tripinfo id="f_1.16" depart="55.00" departLane="D0D1_0" departPos="1.70" departSpeed="0.00" departDelay="0.36" arrival="314.00" arrivalLane="D4D5_0" arrivalPos="187.40" arrivalSpeed="5.37" duration="259.00" routeLength="998.30" waitingTime="58.00" waitingCount="2" stopTime="0.00" timeLoss="81.32" rerouteNo="0" devices="tripinfo_f_1.16" vType="DEFAULT_BIKETYPE" speedFactor="1.02" vaporized=""/>
    <tripinfo id="f4271.0" depart="210.00" departLane="F1E1_0" departPos="26.31" departSpeed="13.90" departDelay="0.00" arrival="314.00" arrivalLane="E3F3_0" arrivalPos="186.40" arrivalSpeed="13.56" duration="104.00" routeLength="737.35" waitingTime="29.00" waitingCount="2" stopTime="0.00" timeLoss="49.47" rerouteNo="1" devices="tripinfo_f4271.0 routing_f4271.0" vType="car" speedFactor="1.21" vaporized=""/>
    <tripinfo id="f_0.8" depart="33.00" departLane="D5D4_0" departPos="1.70" departSpeed="0.00" departDelay="0.84" arrival="315.00" arrivalLane="D1D0_0" arrivalPos="187.40" arrivalSpeed="5.48" duration="282.00" routeLength="998.30" waitingTime="77.00" waitingCount="3" stopTime="0.00" timeLoss="105.72" rerouteNo="0" devices="tripinfo_f_0.8" vType="DEFAULT_BIKETYPE" speedFactor="1.02" vaporized=""/>
    <tripinfo id="f_2.12" depart="52.00" departLane="B0B1_0" departPos="1.70" departSpeed="0.00" departDelay="4.90" arrival="315.00" arrivalLane="B4B5_1" arrivalPos="187.40" arrivalSpeed="5.18" duration="263.00" routeLength="998.30" waitingTime="53.00" waitingCount="2" stopTime="0.00" timeLoss="81.69" rerouteNo="0" devices="tripinfo_f_2.12" vType="DEFAULT_BIKETYPE" speedFactor="1.00" vaporized=""/>