<?xml version="1.0" encoding="UTF-8"?>

<!-- generated on 2026-01-29T23:45:58.654951+01:00 by Eclipse SUMO sumo 1.25.0
<sumoConfiguration xmlns:xsi="http://www.w3.org/2001/XMLSchema-instance" xsi:noNamespaceSchemaLocation="http://sumo.dlr.de/xsd/sumoConfiguration.xsd">

    <input>
        <net-file value="c:\Users\alera\Desktop\ENTPE\MoCoM\MOCOM_project_2\Network with RL control\ff.net.xml"/>
        <route-files value="c:\Users\alera\Desktop\ENTPE\MoCoM\MOCOM_project_2\Network with RL control\ff_heterogeneous.rou.xml"/>
    </input>

    <output>
        <tripinfo-output value="c:\Users\alera\Desktop\ENTPE\MoCoM\MOCOM_project_2\Network with RL control\tripinfo.xml"/>
        <edgedata-output value="c:\Users\alera\Desktop\ENTPE\MoCoM\MOCOM_project_2\Network with RL control\bus_results.xml"/>
    </output>

    <time>
        <begin value="0"/>
        <end value="3600"/>
    </time>

    <processing>
        <waiting-time-memory value="1000"/>
    </processing>

    <report>
        <no-step-log value="true"/>
    </report>

    <traci_server>
        <remote-port value="55090"/>
    </traci_server>

</sumoConfiguration>
-->

<tripinfos xmlns:xsi="http://www.w3.org/2001/XMLSchema-instance" xsi:noNamespaceSchemaLocation="http://sumo.dlr.de/xsd/tripinfo_file.xsd">
    <tripinfo id="f_4.0" depart="0.00" departLane="C5C4_0" departPos="12.10" departSpeed="0.00" departDelay="0.00" arrival="127.00" arrivalLane="C1C0_0" arrivalPos="186.40" arrivalSpeed="13.83" duration="127.00" routeLength="987.90" waitingTime="37.00" waitingCount="1" stopTime="0.00" timeLoss="55.69" rerouteNo="0" devices="tripinfo_f_4.0" vType="t_0" speedFactor="1.00" vaporized=""/>
    <tripinfo id="f_5.0" depart="0.00" departLane="C0C1_0" departPos="12.10" departSpeed="0.00" departDelay="0.00" arrival="127.00" arrivalLane="C4C5_0" arrivalPos="186.40" arrivalSpeed="13.30" duration="127.00" routeLength="987.90" waitingTime="38.00" waitingCount="1" stopTime="0.00" timeLoss="55.25" rerouteNo="0" devices="tripinfo_f_5.0" vType="t_0" speedFactor="1.00" vaporized=""/>
    <tripinfo id="f_4.1" depart="60.00" departLane="C5C4_0" departPos="12.10" departSpeed="0.00" departDelay="0.00" arrival="202.00" arrivalLane="C1C0_0" arrivalPos="186.40" arrivalSpeed="13.34" duration="142.00" routeLength="987.90" waitingTime="44.00" waitingCount="2" stopTime="0.00" timeLoss="70.30" rerouteNo="0" devices="tripinfo_f_4.1" vType="t_0" speedFactor="1.00" vaporized=""/>
    <tripinfo id="f_5.1" depart="60.00" departLane="C0C1_0" departPos="12.10" departSpeed="0.00" departDelay="0.00" arrival="202.00" arrivalLane="C4C5_0" arrivalPos="186.40" arrivalSpeed="13.44" duration="142.00" routeLength="987.90" waitingTime="46.00" waitingCount="2" stopTime="0.00" timeLoss="70.82" rerouteNo="0" devices="tripinfo_f_5.1" vType="t_0" speedFactor="1.00" vaporized=""/>
    <tripinfo id="f_0.0" depart="1.00" departLane="D5D4_0" departPos="1.70" departSpeed="0.00" departDelay="0.65" arrival="220.00" arrivalLane="D1D0_0" arrivalPos="187.40" arrivalSpeed="5.35" duration="219.00" routeLength="998.30" waitingTime="26.00" waitingCount="2" stopTime="0.00" timeLoss="49.44" rerouteNo="0" devices="tripinfo_f_0.0" vType="DEFAULT_BIKETYPE" speedFactor="1.06" vaporized=""/>
    <tripinfo id="f_1.1" depart="4.00" departLane="D0D1_0" departPos="1.70" departSpeed="0.00" departDelay="2.07" arrival="220.00" arrivalLane="D4D5_0" arrivalPos="187.40" arrivalSpeed="5.49" duration="216.00" routeLength="998.30" waitingTime="28.00" waitingCount="2" stopTime="0.00" timeLoss="49.60" rerouteNo="0" devices="tripinfo_f_1.1" vType="DEFAULT_BIKETYPE" speedFactor="1.08" vaporized=""/>
    <tripinfo id="f_3.0" depart="3.00" departLane="B5B4_0" departPos="1.70" departSpeed="0.00" departDelay="0.85" arrival="221.00" arrivalLane="B1B0_0" arrivalPos="187.40" arrivalSpeed="5.59" duration="218.00" routeLength="998.30" waitingTime="22.00" waitingCount="2" stopTime="0.00" timeLoss="43.29" rerouteNo="0" devices="tripinfo_f_3.0" vType="DEFAULT_BIKETYPE" speedFactor="1.03" vaporized=""/>
    <tripinfo id="f_1.0" depart="2.00" departLane="D0D1_0" departPos="1.70" departSpeed="0.00" departDelay="0.97" arrival="222.00" arrivalLane="D4D5_0" arrivalPos="187.40" arrivalSpeed="5.09" duration="220.00" routeLength="998.30" waitingTime="21.00" waitingCount="2" stopTime="0.00" timeLoss="41.98" rerouteNo="0" devices="tripinfo_f_1.0" vType="DEFAULT_BIKETYPE" speedFactor="1.01" vaporized=""/>
    <tripinfo id="f7091.0" depart="191.00" departLane="D2C2_0" departPos="40.90" departSpeed="13.72" departDelay="0.00" arrival="243.00" arrivalLane="C2B2_0" arrivalPos="172.80" arrivalSpeed="13.07" duration="52.00" routeLength="331.90" waitingTime="22.00" waitingCount="1" stopTime="0.00" timeLoss="27.74" rerouteNo="0" devices="tripinfo_f7091.0 routing_f7091.0" vType="car" speedFactor="0.99" vaporized=""/>
    <tripinfo id="f5254.0" depart="214.00" departLane="C2B2_2" departPos="101.80" departSpeed="12.04" departDelay="0.00" arrival="248.00" arrivalLane="B2A2_0" arrivalPos="186.40" arrivalSpeed="11.69" duration="34.00" routeLength="284.60" waitingTime="0.00" waitingCount="0" stopTime="0.00" timeLoss="10.06" rerouteNo="0" devices="tripinfo_f5254.0 routing_f5254.0" vType="car" speedFactor="0.87" vaporized=""/>
    <tripinfo id="f_1.9" depart="28.00" departLane="D0D1_0" departPos="1.70" departSpeed="0.00" departDelay="1.96" arrival="249.00" arrivalLane="D4D5_0" arrivalPos="187.40" arrivalSpeed="6.40" duration="221.00" routeLength="998.30" waitingTime="45.00" waitingCount="3" stopTime="0.00" timeLoss="67.99" rerouteNo="0" devices="tripinfo_f_1.9" vType="DEFAULT_BIKETYPE" speedFactor="1.18" vaporized=""/>
    <tripinfo id="f_3.8" depart="33.00" departLane="B5B4_0" departPos="1.70" departSpeed="0.00" departDelay="5.07" arrival="249.00" arrivalLane="B1B0_0" arrivalPos="187.40" arrivalSpeed="6.33" duration="216.00" routeLength="998.30" waitingTime="42.00" waitingCount="2" stopTime="0.00" timeLoss="62.44" rerouteNo="0" devices="tripinfo_f_3.8" vType="DEFAULT_BIKETYPE" speedFactor="1.17" vaporized=""/>
    <tripinfo id="f_2.2" depart="20.00" departLane="B0B1_0" departPos="1.70" departSpeed="0.00" departDelay="0.40" arrival="250.00" arrivalLane="B4B5_0" arrivalPos="187.40" arrivalSpeed="6.36" duration="230.00" routeLength="998.30" waitingTime="50.00" waitingCount="2" stopTime="0.00" timeLoss="74.62" rerouteNo="0" devices="tripinfo_f_2.2" vType="DEFAULT_BIKETYPE" speedFactor="1.16" vaporized=""/>
    <tripinfo id="f_1.8" depart="26.00" departLane="D0D1_0" departPos="1.70" departSpeed="0.00" departDelay="0.77" arrival="251.00" arrivalLane="D4D5_0" arrivalPos="187.40" arrivalSpeed="5.79" duration="225.00" routeLength="998.30" waitingTime="46.00" waitingCount="2" stopTime="0.00" timeLoss="65.75" rerouteNo="0" devices="tripinfo_f_1.8" vType="DEFAULT_BIKETYPE" speedFactor="1.13" vaporized=""/>
    <tripinfo id="f_1.5" depart="14.00" departLane="D0D1_0" departPos="1.70" departSpeed="0.00" departDelay="1.92" arrival="252.00" arrivalLane="D4D5_0" arrivalPos="187.40" arrivalSpeed="5.91" duration="238.00" routeLength="998.30" waitingTime="58.00" waitingCount="2" stopTime="0.00" timeLoss="77.74" rerouteNo="0" devices="tripinfo_f_1.5" vType="DEFAULT_BIKETYPE" speedFactor="1.12" vaporized=""/>
    <tripinfo id="f_2.0" depart="10.00" departLane="B0B1_0" departPos="1.70" departSpeed="0.00" departDelay="0.64" arrival="253.00" arrivalLane="B4B5_0" arrivalPos="187.40" arrivalSpeed="5.90" duration="243.00" routeLength="998.30" waitingTime="58.00" waitingCount="2" stopTime="0.00" timeLoss="78.20" rerouteNo="0" devices="tripinfo_f_2.0" vType="DEFAULT_BIKETYPE" speedFactor="1.09" vaporized=""/>
    <tripinfo id="f_3.12" depart="45.00" departLane="B5B4_0" departPos="1.70" departSpeed="0.00" departDelay="0.55" arrival="254.00" arrivalLane="B1B0_0" arrivalPos="187.40" arrivalSpeed="5.51" duration="209.00" routeLength="998.30" waitingTime="19.00" waitingCount="2" stopTime="0.00" timeLoss="44.84" rerouteNo="0" devices="tripinfo_f_3.12" vType="DEFAULT_BIKETYPE" speedFactor="1.10" vaporized=""/>
    <tripinfo id="f_2.14" depart="58.00" departLane="B0B1_0" departPos="1.70" departSpeed="0.00" departDelay="5.62" arrival="254.00" arrivalLane="B4B5_1" arrivalPos="187.40" arrivalSpeed="5.77" duration="196.00" routeLength="998.30" waitingTime="13.00" waitingCount="1" stopTime="0.00" timeLoss="35.19" rerouteNo="0" devices="tripinfo_f_2.14" vType="DEFAULT_BIKETYPE" speedFactor="1.12" vaporized=""/>
    <tripinfo id="f_1.12" depart="39.00" departLane="D0D1_0" departPos="1.70" departSpeed="0.00" departDelay="2.07" arrival="255.00" arrivalLane="D4D5_0" arrivalPos="187.40" arrivalSpeed="5.57" duration="216.00" routeLength="998.30" waitingTime="29.00" waitingCount="2" stopTime="0.00" timeLoss="52.90" rerouteNo="0" devices="tripinfo_f_1.12" vType="DEFAULT_BIKETYPE" speedFactor="1.10" vaporized=""/>
    <tripinfo id="f_2.8" depart="42.00" departLane="B0B1_0" departPos="1.70" departSpeed="0.00" departDelay="0.39" arrival="255.00" arrivalLane="B4B5_0" arrivalPos="187.40" arrivalSpeed="5.78" duration="213.00" routeLength="998.30" waitingTime="25.00" waitingCount="2" stopTime="0.00" timeLoss="47.61" rerouteNo="0" devices="tripinfo_f_2.8" vType="DEFAULT_BIKETYPE" speedFactor="1.09" vaporized=""/>
    <tripinfo id="f4176.0" depart="196.00" departLane="C5C4_1" departPos="16.59" departSpeed="13.29" departDelay="0.00" arrival="256.00" arrivalLane="B4B5_1" arrivalPos="187.40" arrivalSpeed="12.18" duration="60.00" routeLength="547.28" waitingTime="0.00" waitingCount="0" stopTime="0.00" timeLoss="17.09" rerouteNo="1" devices="tripinfo_f4176.0 routing_f4176.0" vType="car" speedFactor="0.96" vaporized=""/>
    <tripinfo id="f_2.1" depart="12.00" departLane="B0B1_0" departPos="1.70" departSpeed="0.00" departDelay="0.91" arrival="257.00" arrivalLane="B4B5_0" arrivalPos="187.40" arrivalSpeed="5.75" duration="245.00" routeLength="998.30" waitingTime="50.00" waitingCount="2" stopTime="0.00" timeLoss="72.90" rerouteNo="0" devices="tripinfo_f_2.1" vType="DEFAULT_BIKETYPE" speedFactor="1.05" vaporized=""/>
    <tripinfo id="f_3.2" depart="7.00" departLane="B5B4_0" departPos="1.70" departSpeed="0.00" departDelay="2.12" arrival="259.00" arrivalLane="B1B0_0" arrivalPos="187.40" arrivalSpeed="5.37" duration="252.00" routeLength="998.30" waitingTime="59.00" waitingCount="2" stopTime="0.00" timeLoss="79.58" rerouteNo="0" devices="tripinfo_f_3.2" vType="DEFAULT_BIKETYPE" speedFactor="1.05" vaporized=""/>
    <tripinfo id="f_0.2" depart="12.00" departLane="D5D4_0" departPos="1.70" departSpeed="0.00" departDelay="0.56" arrival="259.00" arrivalLane="D1D0_0" arrivalPos="187.40" arrivalSpeed="5.68" duration="247.00" routeLength="998.30" waitingTime="49.00" waitingCount="2" stopTime="0.00" timeLoss="71.36" rerouteNo="0" devices="tripinfo_f_0.2" vType="DEFAULT_BIKETYPE" speedFactor="1.03" vaporized=""/>
    <tripinfo id="f_2.3" depart="22.00" departLane="B0B1_0" departPos="1.70" departSpeed="0.00" departDelay="1.02" arrival="259.00" arrivalLane="B4B5_1" arrivalPos="187.40" arrivalSpeed="5.38" duration="237.00" routeLength="998.30" waitingTime="39.00" waitingCount="2" stopTime="0.00" timeLoss="60.12" rerouteNo="0" devices="tripinfo_f_2.3" vType="DEFAULT_BIKETYPE" speedFactor="1.02" vaporized=""/>
    <tripinfo id="f4260.0" depart="199.00" departLane="F1E1_1" departPos="173.00" departSpeed="13.90" departDelay="0.00" arrival="262.00" arrivalLane="C1C0_2" arrivalPos="186.40" arrivalSpeed="13.60" duration="63.00" routeLength="624.31" waitingTime="7.00" waitingCount="1" stopTime="0.00" timeLoss="17.10" rerouteNo="1" devices="tripinfo_f4260.0 routing_f4260.0" vType="car" speedFactor="1.21" vaporized=""/>
    <tripinfo id="f_1.6" depart="17.00" departLane="D0D1_0" departPos="1.70" departSpeed="0.00" departDelay="4.52" arrival="263.00" arrivalLane="D4D5_0" arrivalPos="187.40" arrivalSpeed="5.41" duration="246.00" routeLength="998.30" waitingTime="43.00" waitingCount="2" stopTime="0.00" timeLoss="64.00" rerouteNo="0" devices="tripinfo_f_1.6" vType="DEFAULT_BIKETYPE" speedFactor="0.99" vaporized=""/>
    <tripinfo id="f_3.4" depart="23.00" departLane="B5B4_0" departPos="1.70" departSpeed="0.00" departDelay="2.05" arrival="263.00" arrivalLane="B1B0_0" arrivalPos="187.40" arrivalSpeed="4.88" duration="240.00" routeLength="998.30" waitingTime="34.00" waitingCount="2" stopTime="0.00" timeLoss="55.11" rerouteNo="0" devices="tripinfo_f_3.4" vType="DEFAULT_BIKETYPE" speedFactor="0.97" vaporized=""/>
    <tripinfo id="f4242.0" depart="196.00" departLane="F3E3_2" departPos="133.38" departSpeed="13.90" departDelay="0.00" arrival="263.00" arrivalLane="E1F1_2" arrivalPos="186.40" arrivalSpeed="13.81" duration="67.00" routeLength="661.24" waitingTime="7.00" waitingCount="1" stopTime="0.00" timeLoss="17.97" rerouteNo="1" devices="tripinfo_f4242.0 routing_f4242.0" vType="car" speedFactor="1.13" vaporized=""/>
    <tripinfo id="f4034.0" depart="202.00" departLane="E0E1_2" departPos="77.76" departSpeed="13.45" departDelay="0.00" arrival="265.00" arrivalLane="C1C0_2" arrivalPos="186.40" arrivalSpeed="12.78" duration="63.00" routeLength="716.86" waitingTime="0.00" waitingCount="0" stopTime="0.00" timeLoss="7.91" rerouteNo="1" devices="tripinfo_f4034.0 routing_f4034.0" vType="car" speedFactor="0.97" vaporized=""/>
    <tripinfo id="f4146.0" depart="200.00" departLane="A4B4_1" departPos="16.03" departSpeed="13.90" departDelay="0.00" arrival="267.00" arrivalLane="C4C5_2" arrivalPos="186.40" arrivalSpeed="13.87" duration="67.00" routeLength="581.28" waitingTime="11.00" waitingCount="2" stopTime="0.00" timeLoss="24.35" rerouteNo="1" devices="tripinfo_f4146.0 routing_f4146.0" vType="car" speedFactor="1.02" vaporized=""/>
    <tripinfo id="f7847.0" depart="233.00" departLane="E3D3_1" departPos="162.55" departSpeed="12.58" departDelay="0.00" arrival="267.00" arrivalLane="C3B3_0" arrivalPos="172.80" arrivalSpeed="12.04" duration="34.00" routeLength="410.25" waitingTime="0.00" waitingCount="0" stopTime="0.00" timeLoss="1.21" rerouteNo="1" devices="tripinfo_f7847.0 routing_f7847.0" vType="car" speedFactor="0.91" vaporized=""/>
    <tripinfo id="f4988.0" depart="232.00" departLane="F2E2_1" departPos="158.58" departSpeed="13.70" departDelay="0.00" arrival="271.00" arrivalLane="E3D3_2" arrivalPos="172.80" arrivalSpeed="13.44" duration="39.00" routeLength="406.96" waitingTime="0.00" waitingCount="0" stopTime="0.00" timeLoss="8.27" rerouteNo="1" devices="tripinfo_f4988.0 routing_f4988.0" vType="car" speedFactor="1.02" vaporized=""/>
    <tripinfo id="f5653.0" depart="180.00" departLane="E1D1_2" departPos="128.43" departSpeed="13.90" departDelay="0.00" arrival="274.00" arrivalLane="B1A1_0" arrivalPos="186.40" arrivalSpeed="13.26" duration="94.00" routeLength="657.97" waitingTime="39.00" waitingCount="1" stopTime="0.00" timeLoss="46.13" rerouteNo="1" devices="tripinfo_f5653.0 routing_f5653.0" vType="car" speedFactor="1.02" vaporized=""/>
    <tripinfo id="f4063.0" depart="195.00" departLane="C0C1_1" departPos="44.99" departSpeed="13.90" departDelay="0.00" arrival="276.00" arrivalLane="E1E0_0" arrivalPos="186.40" arrivalSpeed="13.38" duration="81.00" routeLength="718.67" waitingTime="11.00" waitingCount="1" stopTime="0.00" timeLoss="27.93" rerouteNo="1" devices="tripinfo_f4063.0 routing_f4063.0" vType="car" speedFactor="1.04" vaporized=""/>
    <tripinfo id="f5650.0" depart="243.00" departLane="E1D1_0" departPos="82.77" departSpeed="13.90" departDelay="0.00" arrival="276.00" arrivalLane="D1D0_3" arrivalPos="187.40" arrivalSpeed="13.36" duration="33.00" routeLength="301.14" waitingTime="3.00" waitingCount="1" stopTime="0.00" timeLoss="10.19" rerouteNo="0" devices="tripinfo_f5650.0 routing_f5650.0" vType="car" speedFactor="1.01" vaporized=""/>
    <tripinfo id="f5357.0" depart="186.00" departLane="C3C4_2" departPos="162.27" departSpeed="7.52" departDelay="0.00" arrival="279.00" arrivalLane="E4F4_0" arrivalPos="186.40" arrivalSpeed="12.60" duration="93.00" routeLength="605.96" waitingTime="28.00" waitingCount="2" stopTime="0.00" timeLoss="46.37" rerouteNo="1" devices="tripinfo_f5357.0 routing_f5357.0" vType="car" speedFactor="0.97" vaporized=""/>
    <tripinfo id="f4191.0" depart="200.00" departLane="D5D4_1" departPos="38.82" departSpeed="10.53" departDelay="0.00" arrival="279.00" arrivalLane="B4B5_1" arrivalPos="187.40" arrivalSpeed="10.40" duration="79.00" routeLength="725.26" waitingTime="0.00" waitingCount="0" stopTime="0.00" timeLoss="8.09" rerouteNo="1" devices="tripinfo_f4191.0 routing_f4191.0" vType="car" speedFactor="0.76" vaporized=""/>
    <tripinfo id="f5594.0" depart="182.00" departLane="D3E3_1" departPos="80.55" departSpeed="13.47" departDelay="0.00" arrival="280.00" arrivalLane="C4C5_0" arrivalPos="186.40" arrivalSpeed="12.98" duration="98.00" routeLength="882.30" waitingTime="9.00" waitingCount="3" stopTime="0.00" timeLoss="30.29" rerouteNo="1" devices="tripinfo_f5594.0 routing_f5594.0" vType="car" speedFactor="0.97" vaporized=""/>
    <tripinfo id="f4260.1" depart="220.00" departLane="F1E1_2" departPos="176.11" departSpeed="7.40" departDelay="0.00" arrival="283.00" arrivalLane="C1C0_2" arrivalPos="186.40" arrivalSpeed="12.05" duration="63.00" routeLength="621.20" waitingTime="3.00" waitingCount="1" stopTime="0.00" timeLoss="13.82" rerouteNo="1" devices="tripinfo_f4260.1 routing_f4260.1" vType="car" speedFactor="0.93" vaporized=""/>
    <tripinfo id="f5419.0" depart="241.00" departLane="C4D4_1" departPos="36.58" departSpeed="13.90" departDelay="0.00" arrival="283.00" arrivalLane="D4D5_3" arrivalPos="187.40" arrivalSpeed="13.58" duration="42.00" routeLength="347.33" waitingTime="11.00" waitingCount="1" stopTime="0.00" timeLoss="16.56" rerouteNo="0" devices="tripinfo_f5419.0 routing_f5419.0" vType="car" speedFactor="1.12" vaporized=""/>
    <tripinfo id="f4761.0" depart="197.00" departLane="D5D4_3" departPos="57.68" departSpeed="12.71" departDelay="0.00" arrival="284.00" arrivalLane="B4B3_2" arrivalPos="174.80" arrivalSpeed="7.11" duration="87.00" routeLength="709.27" waitingTime="12.00" waitingCount="3" stopTime="0.00" timeLoss="28.94" rerouteNo="1" devices="tripinfo_f4761.0 routing_f4761.0" vType="car" speedFactor="0.92" vaporized=""/>
    <tripinfo id="f4092.0" depart="193.00" departLane="B0B1_3" departPos="29.82" departSpeed="13.39" departDelay="0.00" arrival="287.00" arrivalLane="E1F1_0" arrivalPos="186.40" arrivalSpeed="12.65" duration="94.00" routeLength="952.22" waitingTime="14.00" waitingCount="1" stopTime="0.00" timeLoss="21.05" rerouteNo="1" devices="tripinfo_f4092.0 routing_f4092.0" vType="car" speedFactor="0.96" vaporized=""/>
    <tripinfo id="f7932.0" depart="186.00" departLane="E3E4_1" departPos="68.53" departSpeed="13.75" departDelay="0.00" arrival="288.00" arrivalLane="B4B3_2" arrivalPos="174.80" arrivalSpeed="6.84" duration="102.00" routeLength="900.09" waitingTime="16.00" waitingCount="2" stopTime="0.00" timeLoss="35.46" rerouteNo="1" devices="tripinfo_f7932.0 routing_f7932.0" vType="car" speedFactor="0.99" vaporized=""/>
    <tripinfo id="f_5.2" depart="120.00" departLane="C0C1_0" departPos="12.10" departSpeed="0.00" departDelay="0.00" arrival="292.00" arrivalLane="C4C5_0" arrivalPos="186.40" arrivalSpeed="13.59" duration="172.00" routeLength="987.90" waitingTime="72.00" waitingCount="2" stopTime="0.00" timeLoss="100.55" rerouteNo="0" devices="tripinfo_f_5.2" vType="t_0" speedFactor="1.00" vaporized=""/>
    <tripinfo id="f4255.0" depart="221.00" departLane="F2E2_2" departPos="2.73" departSpeed="13.90" departDelay="0.00" arrival="292.00" arrivalLane="E4F4_0" arrivalPos="186.40" arrivalSpeed="13.55" duration="71.00" routeLength="760.93" waitingTime="4.00" waitingCount="1" stopTime="0.00" timeLoss="14.43" rerouteNo="1" devices="tripinfo_f4255.0 routing_f4255.0" vType="car" speedFactor="1.02" vaporized=""/>
    <tripinfo id="f_4.2" depart="120.00" departLane="C5C4_0" departPos="12.10" departSpeed="0.00" departDelay="0.00" arrival="293.00" arrivalLane="C1C0_0" arrivalPos="186.40" arrivalSpeed="13.51" duration="173.00" routeLength="987.90" waitingTime="72.00" waitingCount="2" stopTime="0.00" timeLoss="101.00" rerouteNo="0" devices="tripinfo_f_4.2" vType="t_0" speedFactor="1.00" vaporized=""/>
    <tripinfo id="f4209.0" depart="262.00" departLane="E5E4_1" departPos="159.23" departSpeed="13.54" departDelay="0.00" arrival="296.00" arrivalLane="E4F4_2" arrivalPos="186.40" arrivalSpeed="13.04" duration="34.00" routeLength="238.08" waitingTime="7.00" waitingCount="1" stopTime="0.00" timeLoss="16.38" rerouteNo="0" devices="tripinfo_f4209.0 routing_f4209.0" vType="car" speedFactor="1.04" vaporized=""/>
    <tripinfo id="f5253.0" depart="194.00" departLane="C2B2_2" departPos="38.56" departSpeed="10.45" departDelay="0.00" arrival="298.00" arrivalLane="B1A1_0" arrivalPos="186.40" arrivalSpeed="10.27" duration="104.00" routeLength="527.39" waitingTime="34.00" waitingCount="3" stopTime="0.00" timeLoss="51.36" rerouteNo="1" devices="tripinfo_f5253.0 routing_f5253.0" vType="car" speedFactor="0.75" vaporized=""/>
    <tripinfo id="f4242.1" depart="200.00" departLane="F3E3_2" departPos="8.73" departSpeed="13.90" departDelay="0.00" arrival="298.00" arrivalLane="E1F1_2" arrivalPos="186.40" arrivalSpeed="13.11" duration="98.00" routeLength="785.89" waitingTime="22.00" waitingCount="3" stopTime="0.00" timeLoss="39.98" rerouteNo="1" devices="tripinfo_f4242.1 routing_f4242.1" vType="car" speedFactor="1.04" vaporized=""/>
    <tripinfo id="f4271.0" depart="210.00" departLane="F1E1_0" departPos="26.31" departSpeed="13.90" departDelay="0.00" arrival="298.00" arrivalLane="E3F3_0" arrivalPos="186.40" arrivalSpeed="13.59" duration="88.00" routeLength="737.35" waitingTime="7.00" waitingCount="2" stopTime="0.00" timeLoss="33.31" rerouteNo="1" devices="tripinfo_f4271.0 routing_f4271.0" vType="car" speedFactor="1.21" vaporized=""/>
    <tripinfo id="f4242.2" depart="210.00" departLane="F3E3_2" departPos="23.17" departSpeed="13.90" departDelay="0.00" arrival="300.00" arrivalLane="E1F1_2" arrivalPos="186.40" arrivalSpeed="13.68" duration="90.00" routeLength="771.45" waitingTime="11.00" waitingCount="3" stopTime="0.00" timeLoss="33.07" rerouteNo="1" devices="tripinfo_f4242.2 routing_f4242.2" vType="car" speedFactor="1.07" vaporized=""/>
    <tripinfo id="f_1.11" depart="37.00" departLane="D0D1_0" departPos="1.70" departSpeed="0.00" departDelay="0.18" arrival="307.00" arrivalLane="D4D5_1" arrivalPos="187.40" arrivalSpeed="6.30" duration="270.00" routeLength="998.30" waitingTime="75.00" waitingCount="3" stopTime="0.00" timeLoss="117.19" rerouteNo="0" devices="tripinfo_f_1.11" vType="DEFAULT_BIKETYPE" speedFactor="1.18" vaporized=""/>
    <tripinfo id="f_4.3" depart="180.00" departLane="C5C4_0" departPos="12.10" departSpeed="0.00" departDelay="0.00" arrival="307.00" arrivalLane="C1C0_0" arrivalPos="186.40" arrivalSpeed="13.66" duration="127.00" routeLength="987.90" waitingTime="39.00" waitingCount="1" stopTime="0.00" timeLoss="55.42" rerouteNo="0" devices="tripinfo_f_4.3" vType="t_0" speedFactor="1.00" vaporized=""/>
    <tripinfo id="f_5.3" depart="180.00" departLane="C0C1_0" departPos="12.10" departSpeed="0.00" departDelay="0.00" arrival="307.00" arrivalLane="C4C5_0" arrivalPos="186.40" arrivalSpeed="13.84" duration="127.00" routeLength="987.90" waitingTime="38.00" waitingCount="1" stopTime="0.00" timeLoss="55.06" rerouteNo="0" devices="tripinfo_f_5.3" vType="t_0" speedFactor="1.00" vaporized=""/>
    <tripinfo id="f_1.10" depart="31.00" departLane="D0D1_0" departPos="1.70" departSpeed="0.00" departDelay="4.82" arrival="308.00" arrivalLane="D4D5_0" arrivalPos="187.40" arrivalSpeed="6.39" duration="277.00" routeLength="998.30" waitingTime="82.00" waitingCount="3" stopTime="0.00" timeLoss="120.60" rerouteNo="0" devices="tripinfo_f_1.10" vType="DEFAULT_BIKETYPE" speedFactor="1.15" vaporized=""/>
    <tripinfo id="f_0.14" depart="52.00" departLane="D5D4_0" departPos="1.70" departSpeed="0.00" departDelay="3.65" arrival="308.00" arrivalLane="D1D0_0" arrivalPos="187.40" arrivalSpeed="5.77" duration="256.00" routeLength="998.30" waitingTime="65.00" waitingCount="3" stopTime="0.00" timeLoss="98.05" rerouteNo="0" devices="tripinfo_f_0.14" vType="DEFAULT_BIKETYPE" speedFactor="1.14" vaporized=""/>
    <tripinfo id="f4149.0" depart="208.00" departLane="A4B4_0" departPos="63.91" departSpeed="13.63" departDelay="0.00" arrival="308.00" arrivalLane="E4F4_0" arrivalPos="186.40" arrivalSpeed="13.28" duration="100.00" routeLength="936.09" waitingTime="12.00" waitingCount="2" stopTime="0.00" timeLoss="30.57" rerouteNo="1" devices="tripinfo_f4149.0 routing_f4149.0" vType="car" speedFactor="0.98" vaporized=""/>
    <tripinfo id="f_0.13" depart="50.00" departLane="D5D4_0" departPos="1.70" departSpeed="0.00" departDelay="5.22" arrival="309.00" arrivalLane="D1D0_0" arrivalPos="187.40" arrivalSpeed="6.45" duration="259.00" routeLength="998.30" waitingTime="63.00" waitingCount="4" stopTime="0.00" timeLoss="105.03" rerouteNo="0" devices="tripinfo_f_0.13" vType="DEFAULT_BIKETYPE" speedFactor="1.17" vaporized=""/>
    <tripinfo id="f5290.0" depart="266.00" departLane="C2C3_2" departPos="24.15" departSpeed="13.90" departDelay="0.00" arrival="309.00" arrivalLane="C4C5_1" arrivalPos="186.40" arrivalSpeed="13.19" duration="43.00" routeLength="562.25" waitingTime="0.00" waitingCount="0" stopTime="0.00" timeLoss="1.65" rerouteNo="1" devices="tripinfo_f5290.0 routing_f5290.0" vType="car" speedFactor="1.08" vaporized=""/>
    <tripinfo id="f4723.0" depart="271.00" departLane="C5C4_0" departPos="104.73" departSpeed="13.90" departDelay="0.00" arrival="310.00" arrivalLane="C3C2_1" arrivalPos="172.80" arrivalSpeed="13.71" duration="39.00" routeLength="481.67" waitingTime="0.00" waitingCount="0" stopTime="0.00" timeLoss="3.72" rerouteNo="1" devices="tripinfo_f4723.0 routing_f4723.0" vType="car" speedFactor="1.01" vaporized=""/>
    <tripinfo id="f_1.13" depart="42.00" departLane="D0D1_0" departPos="1.70" departSpeed="0.00" departDelay="1.03" arrival="311.00" arrivalLane="D4D5_0" arrivalPos="187.40" arrivalSpeed="5.26" duration="269.00" routeLength="998.30" waitingTime="67.00" waitingCount="3" stopTime="0.00" timeLoss="95.47" rerouteNo="0" devices="tripinfo_f_1.13" vType="DEFAULT_BIKETYPE" speedFactor="1.04" vaporized=""/>
    <tripinfo id="f_1.14" depart="44.00" departLane="D0D1_0" departPos="1.70" departSpeed="0.00" departDelay="2.40" arrival="311.00" arrivalLane="D4D5_1" arrivalPos="187.40" arrivalSpeed="5.56" duration="267.00" routeLength="998.30" waitingTime="65.00" waitingCount="3" stopTime="0.00" timeLoss="94.10" rerouteNo="0" devices="tripinfo_f_1.14" vType="DEFAULT_BIKETYPE" speedFactor="1.04" vaporized=""/>
    <tripinfo id="f_3.14" depart="52.00" departLane="B5B4_0" departPos="1.70" departSpeed="0.00" departDelay="0.50" arrival="311.00" arrivalLane="B1B0_1" arrivalPos="187.40" arrivalSpeed="5.50" duration="259.00" routeLength="998.30" waitingTime="58.00" waitingCount="3" stopTime="0.00" timeLoss="92.36" rerouteNo="0" devices="tripinfo_f_3.14" vType="DEFAULT_BIKETYPE" speedFactor="1.08" vaporized=""/>
    <tripinfo id="f_2.17" depart="67.00" departLane="B0B1_0" departPos="1.70" departSpeed="0.00" departDelay="0.14" arrival="311.00" arrivalLane="B4B5_0" arrivalPos="187.40" arrivalSpeed="5.48" duration="244.00" routeLength="998.30" waitingTime="52.00" waitingCount="2" stopTime="0.00" timeLoss="72.96" rerouteNo="0" devices="tripinfo_f_2.17" vType="DEFAULT_BIKETYPE" speedFactor="1.06" vaporized=""/>
    <tripinfo id="f4194.0" depart="249.00" departLane="D5D4_1" departPos="158.02" departSpeed="11.19" departDelay="0.00" arrival="311.00" arrivalLane="E4F4_1" arrivalPos="186.40" arrivalSpeed="13.47" duration="62.00" routeLength="439.49" waitingTime="18.00" waitingCount="2" stopTime="0.00" timeLoss="30.31" rerouteNo="1" devices="tripinfo_f4194.0 routing_f4194.0" vType="car" speedFactor="1.32" vaporized=""/>
    <tripinfo id="f4347.0" depart="249.00" departLane="D0D1_1" departPos="173.50" departSpeed="2.50" departDelay="0.00" arrival="311.00" arrivalLane="D1E1_0" arrivalPos="172.80" arrivalSpeed="11.18" duration="62.00" routeLength="194.94" waitingTime="32.00" waitingCount="2" stopTime="0.00" timeLoss="43.65" rerouteNo="0" devices="tripinfo_f4347.0 routing_f4347.0" vType="car" speedFactor="0.83" vaporized=""/>
    <tripinfo id="f_3.3" depart="21.00" departLane="B5B4_0" departPos="1.70" departSpeed="0.00" departDelay="0.63" arrival="312.00" arrivalLane="B1B0_0" arrivalPos="187.40" arrivalSpeed="5.28" duration="291.00" routeLength="998.30" waitingTime="84.00" waitingCount="4" stopTime="0.00" timeLoss="112.25" rerouteNo="0" devices="tripinfo_f_3.3" vType="DEFAULT_BIKETYPE" speedFactor="1.01" vaporized=""/>
    <tripinfo id="f_1.25" depart="87.00" departLane="D0D1_0" departPos="1.70" departSpeed="0.00" departDelay="2.87" arrival="312.00" arrivalLane="D4D5_0" arrivalPos="187.40" arrivalSpeed="5.80" duration="225.00" routeLength="998.30" waitingTime="36.00" waitingCount="2" stopTime="0.00" timeLoss="64.80" rerouteNo="0" devices="tripinfo_f_1.25" vType="DEFAULT_BIKETYPE" speedFactor="1.12" vaporized=""/>
    <tripinfo id="f_2.6" depart="35.00" departLane="B0B1_0" departPos="1.70" departSpeed="0.00" departDelay="0.63" arrival="314.00" arrivalLane="B4B5_0" arrivalPos="187.40" arrivalSpeed="5.25" duration="279.00" routeLength="998.30" waitingTime="67.00" waitingCount="3" stopTime="0.00" timeLoss="93.98" rerouteNo="0" devices="tripinfo_f_2.6" vType="DEFAULT_BIKETYPE" speedFactor="0.97" vaporized=""/>
    <tripinfo id="f_1.15" depart="49.00" departLane="D0D1_0" departPos="1.70" departSpeed="0.00" departDelay="0.07" arrival="314.00" arrivalLane="D4D5_2" arrivalPos="187.40" arrivalSpeed="5.36" duration="265.00" routeLength="998.30" waitingTime="58.00" waitingCount="3" stopTime="0.00" timeLoss="88.68" rerouteNo="0" devices="tripinfo_f_1.15" vType="DEFAULT_BIKETYPE" speedFactor="1.02" vaporized=""/>